; GENERATED WITH smartini for HEM
; Developed by: DY
; SMILES code : [H]OC(=O)C([H])([H])C([H])([H])C1=C(C([H])([H])[H])c2nc1c([H])c1c(C([H])([H])C([H])([H])C(=O)O[H])c(C([H])([H])[H])c(c([H])c3nc(c([H])c4c(C([H])([H])[H])c(C([H])=C([H])[H])c(c2[H])n4[H])C(C([H])=C([H])[H])=C3C([H])([H])[H])n1[H]
; Mapping: [[4, 0, 0, 31, 42], [14, 1, 1, 7, 43], [21, 2, 2, 17, 44], [28, 3, 3, 24, 45], [5, 9, 10, 49, 50, 51, 52], [6, 8, 46, 47, 48], [7, 38, 38, 4, 74], [11, 12, 13, 53], [15, 16, 18, 54, 55, 56], [17, 39, 39, 14], [19, 20, 57, 58, 59], [22, 23, 25, 60, 61, 62], [24, 40, 40, 21, 75], [26, 27, 63, 64, 65], [29, 32, 66, 67, 68], [30, 33, 34, 69, 70, 71, 72], [31, 41, 41, 28], [35, 36, 37, 73]]
; Ringbeads: [[0, 1, 2, 3, 4, 5, 6, 8, 9, 11, 12, 14, 15, 16]]

[moleculetype]
; molname       nrexcl
  HEM           2


[atoms]
;id type resn res    atom  cgnr chrg  mass ; atomnames      ; smiles         ; logp_origin
1   TC5   1   HEM    C01    1    0.0  36.0   ; C1, C5         ; C=C            ;          
2   TC5   1   HEM    C02    2    0.0  36.0   ; C2, C13        ; C=C            ;          
3   TC5   1   HEM    C03    3    0.0  36.0   ; C3, C20        ; C=C            ;          
4   TC5   1   HEM    C04    4    0.0  36.0   ; C4, C27        ; C=C            ;          
5   SC4   1   HEM    C05    5    0.0  54.0   ; C6, C10, C11   ; CCC            ;          
6   TC4   1   HEM    C06    6    0.0  36.0   ; C7, C9         ; CC             ;          
7   TN6d  1   HEM    N07    7    0.0  36.0   ; C8, N1         ; CN             ;          
8   SN6d  1   HEM    N08    8    0.0  54.0   ; C12, O1, O2    ; OC=O           ;          
9   SC4   1   HEM    C09    9    0.0  54.0   ; C14, C15, C17  ; CC=C           ;          
10  TN6a  1   HEM    N10    10   0.0  36.0   ; C16, N2        ; CN             ;          
11  TC4   1   HEM    C11    11   0.0  36.0   ; C18, C19       ; C=C            ;          
12  SC5   1   HEM    C12    12   0.0  54.0   ; C21, C22, C24  ; CC=C           ;          
13  TN6d  1   HEM    N13    13   0.0  36.0   ; C23, N3        ; CN             ;          
14  TC4   1   HEM    C14    14   0.0  36.0   ; C25, C26       ; C=C            ;          
15  TC3   1   HEM    C15    15   0.0  36.0   ; C28, C31       ; CC             ;          
16  SC3   1   HEM    C16    16   0.0  54.0   ; C29, C32, C33  ; CCC            ;          
17  TN6a  1   HEM    N17    17   0.0  36.0   ; C30, N4        ; CN             ;          
18  SN6d  1   HEM    N18    18   0.0  54.0   ; C34, O3, O4    ; OC=O           ;          


[bonds]
;  i  j     funct   length   force.c.
   1  5        1      0.347       3287.6
   2  9        1      0.303       50000.0
   3 12        1      0.307       50000.0
   4 15        1      0.312       50000.0
   5  6        1      0.320       15475.4
   5  8        1      0.295       33462.0
   9 11        1      0.338       3470.5
  12 14        1      0.342       3297.5
  15 16        1      0.337       2549.0
  16 17        1      0.360       13413.2
  16 18        1      0.296       32116.3


[constraints]
;  i   j     funct   length
   1  7        1      0.249
   1 17        1      0.238
   2  7        1      0.249
   2 10        1      0.238
   3 10        1      0.242
   3 13        1      0.240
   4 13        1      0.240
   4 17        1      0.242
   6  7        1      0.353
   9 10        1      0.305
  12 13        1      0.327


[angles]
;  i  j  k    funct  angle  force.c.
   1  5  6       10    98.4   386.6
   1  5  8       10    107.1    3.4
   1  7  2        1    171.8  867.9
   1  7  6       10    113.1  2000.0
   1 17  4        1    175.7  516.9
   1 17 16       10    61.6   454.2
   2  7  6       10    60.1   2000.0
   2  9 11       10    124.2   52.9
   2 10  3        1    175.3  413.9
   3 10  9       10    115.3  2000.0
   3 12 14       10    125.0   64.7
   3 13  4        1    167.4  243.1
   4 13 12       10    106.6  2000.0
   4 15 16       10    108.0  417.9
   4 17 16       10    120.3  252.2
   5  1  7       10    77.8   1193.0
   5  1 17       10    158.0   33.7
   5  6  7       10    68.8   292.4
   6  5  8       10    122.6   33.7
   7  1 17       10    86.0   2000.0
   7  2  9       10    152.1  338.8
   7  2 10       10    85.8   1939.8
  10  3 12       10    158.0  484.7
  10  3 13       10    87.0   2000.0
  10  9 11       10    79.4    47.5
  13  4 15       10    157.1  212.6
  13  4 17       10    86.9   2000.0
  13 12 14       10    81.5    47.6
  15  4 17       10    72.8   2000.0
  15 16 17       10    57.0   866.3
  15 16 18       10    117.3    3.0
  17 16 18        1    131.9    3.0


[dihedrals]
;  i  j  k  l  funct  parameters...
   1  7  2  9    11    86.29   0.4669  -0.02604  -0.7886  -0.3186   0.2406
   1  7  2 10    11    74.06   0.3787   0.08942  -0.7532   0.04622   0.5283
   1 17  4 13    11    54.42   0.04873  -0.3723   0.7211   0.3273  -0.4816
   1 17  4 15    11    51.29   0.07276   0.4559   0.6567  -0.4092  -0.4339
   1 17 16 15    9    -13.0  69.280      1
   1 17 16 18    11    41.37   0.111  -0.006794  -0.537  -0.1026   0.8299
   2  7  1  5    11    60.4   0.4766  -0.5844  -0.4126   0.5105   0.02225
   2  7  1 17    11    123.7   0.2135  -0.2116  -0.6694   0.3079   0.6055
   2  7  6  5    9    3.2    9.108      1
   2  7  6  5    9    -175.6  7.121      2
   2  7  6  5    9    -0.7   4.425      3
   2  7  6  5    9    153.1  1.917      4
   2  7  6  5    9    -129.1  1.043      5
   2  7  6  5    9    -30.8  3.290      6
   2  9 10  3    9    -1.2   76.302      1
   2 10  3 12    11    41.74   0.08304  -0.4879   0.6468   0.3892  -0.4304
   2 10  3 13    11    63.16   0.03509  -0.3364   0.6931   0.3244  -0.5478
   2 10  9 11    9    4.3    5.529      1
   2 10  9 11    9    -171.5  3.240      2
   2 10  9 11    9    5.1    0.869      3
   2 10  9 11    9    62.4   0.607      4
   2 10  9 11    9    -102.0  0.684      5
   2 10  9 11    9    -62.5  0.822      6
   3 10  2  7    11    58.22   0.04217  -0.3629   0.7051   0.323  -0.5148
   3 10  2  9    11    29.44   0.08245   0.4841   0.6862  -0.3344  -0.4197
   3 10  9 11    9    177.5  9.631      1
   3 10  9 11    9    175.5  6.963      2
   3 10  9 11    9    174.3  3.796      3
   3 10  9 11    9    179.0  1.240      4
   3 10  9 11    9    -30.2  0.558      5
   3 10  9 11    9    -10.9  2.861      6
   3 12 13  4    9    -0.8   13.571      1
   3 13  4 15    11    73.57   0.5817   0.1876  -0.5062  -0.5886  -0.1543
   3 13  4 17    11    85.11   0.4035   0.5994  -0.2795  -0.6249  -0.09609
   3 13 12 14    9    0.9    5.539      1
   3 13 12 14    9    -178.3  3.212      2
   3 13 12 14    9    0.3    0.847      3
   3 13 12 14    9    25.8   0.364      4
   3 13 12 14    9    -130.6  0.278      5
   3 13 12 14    9    -36.3  0.357      6
   4 13  3 10    11    147.7   0.4032   0.584  -0.08631  -0.6484  -0.2618
   4 13  3 12    11    91.03   0.2927  -0.7055   0.1927   0.5357  -0.3042
   4 13 12 14    9    -176.1  10.749      1
   4 13 12 14    9    -172.5  6.843      2
   4 13 12 14    9    -175.8  2.471      3
   4 13 12 14    9    73.8   1.012      4
   4 13 12 14    9    54.8   1.586      5
   4 13 12 14    9    -45.7  1.940      6
   4 15 16 18    9    72.2   2.842      1
   4 15 16 18    9    174.9  0.556      2
   4 15 16 18    9    -100.2  0.495      3
   4 15 16 18    9    -52.4  1.743      4
   4 15 16 18    9    40.1   1.442      5
   4 17  1  5    11    9.176   0.4568  -0.692   0.4831  -0.2781   0.04232
   4 17  1  7    11    58.6   0.04763  -0.3676   0.7059   0.3425  -0.497
   4 17 16 18    11    40.43   0.1087   0.002185  -0.525   0.1222   0.8352
   5  1 17 16    9    -14.1  14.023      1
   5  1 17 16    9    2.1    0.703      2
   5  1 17 16    9    140.2  3.346      3
   5  1 17 16    9    141.0  1.418      4
   5  1 17 16    9    150.5  0.645      5
   5  1 17 16    9    143.5  0.301      6
   6  5  1 17    9    -176.7  12.584      1
   6  5  1 17    9    1.7    4.967      2
   6  5  1 17    9    54.7   0.353      3
   6  5  1 17    9    -155.1  1.516      4
   6  5  1 17    9    39.5   1.011      5
   6  5  1 17    9    -121.5  0.366      6
   6  7  1 17    9    -2.6   15.451      1
   6  7  2  9    9    -1.0   19.908      1
   6  7  2 10    9    0.3    14.717      1
   7  1  5  8    9    -2.5   6.621      1
   7  1  5  8    9    -24.6  3.063      2
   7  1  5  8    9    -84.2  0.747      3
   7  1  5  8    9    -160.3  1.274      4
   7  1 17 16    9    -13.1  40.859      1
   7  2  9 10    9    179.6  3.157      1
   7  2  9 11    9    -178.3  4.507      1
   7  2 10  9    9    -1.5   13.661      1
   7  6  5  8    9    -21.0  1.998      1
   7  6  5  8    9    0.0    1.190      2
   7  6  5  8    9    -8.4   3.071      3
   8  5  1 17    9    40.4   0.845      1
   8  5  1 17    9    -12.8  0.533      2
   9 10  3 12    9    -1.8   7.425      1
   9 10  3 13    9    -1.8   24.854      1
  10  2  9 11    9    -179.8  6.335      1
  10  2  9 11    9    -179.6  2.453      2
  10  2  9 11    9    1.4    0.585      3
  10  2  9 11    9    6.9    0.669      4
  10  2  9 11    9    174.8  1.030      5
  10  2  9 11    9    -17.5  0.748      6
  10  3 12 13    9    178.6  6.529      1
  10  3 12 13    9    176.7  2.573      2
  10  3 12 13    9    0.4    0.663      3
  10  3 12 13    9    -5.9   1.157      4
  10  3 12 13    9    -160.6  0.293      5
  10  3 12 13    9    145.0  0.187      6
  10  3 12 14    9    -179.6  3.870      1
  10  3 13 12    9    -1.6   31.545      1
  12 13  4 15    9    -5.3   13.991      1
  12 13  4 15    9    175.4  2.603      2
  12 13  4 15    9    160.9  3.388      3
  12 13  4 15    9    -1.1   1.119      4
  12 13  4 15    9    -26.1  1.904      5
  12 13  4 15    9    -39.8  0.727      6
  12 13  4 17    9    -2.1   44.696      1
  13  3 12 14    9    -179.5  6.170      1
  13  3 12 14    9    -178.2  2.820      2
  13  3 12 14    9    -25.6  0.138      3
  13  3 12 14    9    6.9    0.842      4
  13  3 12 14    9    136.6  0.363      5
  13  3 12 14    9    -54.6  0.224      6
  13  4 15 16    9    168.5  14.142      1
  13  4 15 16    9    154.6  0.603      2
  13  4 15 16    9    -33.9  3.601      3
  13  4 15 16    9    138.5  0.473      4
  13  4 15 16    9    131.0  0.982      5
  13  4 15 16    9    -48.8  0.398      6
  13  4 17 16    9    9.7    27.085      1



[exclusions]
  1 2
  1 3
  1 4
  1 5
  1 6
  1 7
  1 8
  1 9
  1 10
  1 12
  1 13
  1 15
  1 16
  1 17
  2 3
  2 4
  2 5
  2 6
  2 7
  2 9
  2 10
  2 11
  2 12
  2 13
  2 15
  2 16
  2 17
  3 4
  3 5
  3 6
  3 7
  3 9
  3 10
  3 12
  3 13
  3 14
  3 15
  3 16
  3 17
  4 5
  4 6
  4 7
  4 9
  4 10
  4 12
  4 13
  4 15
  4 16
  4 17
  5 6
  5 7
  5 8
  5 9
  5 10
  5 12
  5 13
  5 15
  5 16
  5 17
  6 7
  6 8
  6 9
  6 10
  6 12
  6 13
  6 15
  6 16
  6 17
  7 9
  7 10
  7 12
  7 13
  7 15
  7 16
  7 17
  9 10
  9 11
  9 12
  9 13
  9 15
  9 16
  9 17
  10 11
  10 12
  10 13
  10 15
  10 16
  10 17
  12 13
  12 14
  12 15
  12 16
  12 17
  13 14
  13 15
  13 16
  13 17
  15 16
  15 17
  15 18
  16 17
  16 18
  17 18

#ifndef POSRES_FC
#define POSRES_FC 1000.0
#endif
[ position_restraints ]
#ifdef POSRES
    1 1 POSRES_FC POSRES_FC POSRES_FC
    2 1 POSRES_FC POSRES_FC POSRES_FC
    3 1 POSRES_FC POSRES_FC POSRES_FC
    4 1 POSRES_FC POSRES_FC POSRES_FC
    5 1 POSRES_FC POSRES_FC POSRES_FC
    6 1 POSRES_FC POSRES_FC POSRES_FC
    7 1 POSRES_FC POSRES_FC POSRES_FC
    8 1 POSRES_FC POSRES_FC POSRES_FC
    9 1 POSRES_FC POSRES_FC POSRES_FC
   10 1 POSRES_FC POSRES_FC POSRES_FC
   11 1 POSRES_FC POSRES_FC POSRES_FC
   12 1 POSRES_FC POSRES_FC POSRES_FC
   13 1 POSRES_FC POSRES_FC POSRES_FC
   14 1 POSRES_FC POSRES_FC POSRES_FC
   15 1 POSRES_FC POSRES_FC POSRES_FC
   16 1 POSRES_FC POSRES_FC POSRES_FC
   17 1 POSRES_FC POSRES_FC POSRES_FC
   18 1 POSRES_FC POSRES_FC POSRES_FC
#endif
