; GENERATED WITH smartini for LIB
; Developed by: DY
; SMILES code : [H]Oc1c([H])c([H])c(F)c([H])c1C([H])(C(=O)N([H])c1nc([H])c([H])s1)N1C(=O)c2c([H])c(-c3c([H])c([H])c(C4([H])C([H])([H])C([H])([H])N(C([H])([H])[H])C([H])([H])C4([H])[H])c([H])c3[H])c([H])c([H])c2C1([H])[H]
; Mapping: [[0, 2], [1, 10, 41], [3, 12, 42], [4, 6], [5, 7, 53], [8, 38, 68], [9, 24, 40], [11, 35, 61, 62, 63], [13, 14, 43, 44], [15, 20, 45, 50], [16, 21, 46, 51], [17, 19, 47, 49], [18, 25, 48], [22, 30, 52], [23, 39], [26, 27], [28, 31, 54, 55], [29, 34, 60], [32, 36, 56, 57, 64, 65], [33, 37, 58, 59, 66, 67]]
; Ringbeads: [[1, 2, 4], [7, 17, 18, 19], [6, 8, 13, 14], [9, 10, 15, 17], [0, 5, 11, 12, 15, 16]]

[moleculetype]
; molname       nrexcl
  LIB           2


[atoms]
;id type resn res    atom  cgnr chrg  mass ; atomnames      ; smiles         ; logp_origin
1   TN5a  1   LIB    N01    1    0.0  0.0   ; C1, O1         ; C=O            ;          
2   TN6a  1   LIB    N02    2    0.0  36.0   ; N1, C4         ; CN             ;          
3   TC6   1   LIB    C03    3    0.0  36.0   ; S1, C5         ; CS             ;          
4   TN5a  1   LIB    N04    4    0.0  36.0   ; C2, O2         ; C=O            ;          
5   TN5d  1   LIB    N05    5    0.0  36.0   ; N2, C3         ; CN             ;          
6   TN5d  1   LIB    N06    6    0.0  72.0   ; N3, C31        ; CN             ;          
7   TP2d  1   LIB    P07    7    0.0  36.0   ; O3, C17        ; CO             ;          
8   TN5d  1   LIB    N08    8    0.0  36.0   ; N4, C28        ; CN             ;          
9   TC5   1   LIB    C09    9    0.0  36.0   ; C6, C7         ; C=C            ;          
10  TC5   1   LIB    C10    10   0.0  36.0   ; C8, C13        ; C=C            ;          
11  TC5   1   LIB    C11    11   0.0  36.0   ; C9, C14        ; C=C            ;          
12  TC5   1   LIB    C12    12   0.0  72.0   ; C10, C12       ; C=C            ;          
13  TC5   1   LIB    C13    13   0.0  0.0   ; C11, C18       ; C=C            ;          
14  TC5   1   LIB    C14    14   0.0  36.0   ; C15, C23       ; C=C            ;          
15  TX1   1   LIB    X15    15   0.0  36.0   ; C16, F1        ; CF             ;          
16  TC5   1   LIB    C16    16   0.0  72.0   ; C19, C20       ; C-C            ;          
17  TC4   1   LIB    C17    17   0.0  0.0   ; C21, C24       ; CC             ;          
18  TC4   1   LIB    C18    18   0.0  36.0   ; C22, C27       ; CC             ;          
19  TC3   1   LIB    C19    19   0.0  36.0   ; C25, C29       ; CC             ;          
20  TC3   1   LIB    C20    20   0.0  36.0   ; C26, C30       ; CC             ;          


[bonds]
;  i  j     funct   length   force.c.
   2  5        1      0.304       50000.0
   3  5        1      0.358       50000.0
   4  6        1      0.229       29254.0
   6 14        1      0.253       33723.9 ; ring-ring link
   7  9        1      0.282       47155.5
   7 14        1      0.339       50000.0
   8 19        1      0.322       50000.0
   8 20        1      0.323       50000.0
  10 18        1      0.311       4219.8
  11 18        1      0.304       4236.8
  18 19        1      0.257       50000.0
  18 20        1      0.256       50000.0
  19 20        1      0.315       50000.0 ; ring_diagonal
   6 12        1      0.558       22005.8 ; ring_anchor
  16  6        1      0.652       34128.4 ; ring_anchor


[constraints]
;  i   j     funct   length
   2  3        1      0.216
   4  5        1      0.216
   9 15        1      0.268
  10 16        1      0.276
  11 16        1      0.276
  14 15        1      0.226
   9 14        1      0.324 ; ring_diagonal
  10 11        1      0.338 ; ring_diagonal
  12 16        1      0.276 ; ring_anchor


[angles]
;  i  j  k    funct  angle  force.c.
   2  5  4       10    134.4  457.7
   3  5  4       10    98.5   1079.2
   4  6 12       10    122.5    5.0
   4  6 14       10    78.1    50.4
   4  6 16       10    110.6   51.3
   5  4  6       10    93.2    86.8
   6 14  7       10    61.5   241.8
   6 14 15        1    162.6  146.0
   6 16 10       10    144.7   10.2
   6 16 11       10    136.8    7.0
   7  9 15       10    111.2  884.5
   7 14 15       10    104.9  801.6
   8 19 18       10    111.2  703.8
   8 20 18       10    111.2  732.4
  10 16 12       10    130.6    3.0
  10 18 19       10    124.0    6.4
  10 18 20       10    123.0    8.0
  11 16 12       10    144.2    4.2
  11 18 19       10    125.5    6.5
  11 18 20       10    126.8    6.0
  12  6 14       10    100.7   24.5
  14  6 16       10    104.5   15.7
  16 10 18       10    108.0   90.7
  16 11 18       10    109.8   89.9


[dihedrals]
;  i  j  k  l  funct  parameters...
   2  3  5  4    9    -1.8   11.209      1
   2  5  4  6    9    -6.1   21.049      1
   3  2  5  4    9    178.1  5.383      1
   3  5  4  6    9    -6.5   24.480      1
   4  6 12 16    9    -157.5  0.690      1
   4  6 12 16    9    75.8   0.396      2
   4  6 12 16    9    109.0  0.224      3
   4  6 14  7    9    66.6   13.641      1
   4  6 14  7    9    136.7  3.683      2
   4  6 14  7    9    26.9   1.838      3
   4  6 14  7    9    88.6   4.726      4
   4  6 14  7    9    147.1  4.472      5
   4  6 14  7    9    -149.0  1.272      6
   4  6 14 15    11    38.04   0.5426   0.6589  -0.3542  -0.3596   0.1288
   4  6 16 10    9    -45.8  0.343      1
   4  6 16 10    9    15.8   0.104      2
   4  6 16 11    9    176.1  0.490      1
   4  6 16 11    9    154.1  0.328      2
   4  6 16 12    9    19.8   0.612      1
   4  6 16 12    9    81.3   0.215      2
   4  6 16 12    9    -66.4  0.346      3
   5  4  6 12    9    38.9   1.171      1
   5  4  6 12    9    100.8  0.629      2
   5  4  6 12    9    -21.4  0.829      3
   5  4  6 14    9    -52.0  1.577      1
   5  4  6 14    9    -86.3  1.595      2
   5  4  6 16    9    37.0   1.246      1
   5  4  6 16    9    87.3   0.355      2
   5  4  6 16    9    -29.4  0.528      3
   5  4  6 16    9    -84.4  0.639      4
   6 12 16 10    9    -0.1   0.941      1
   6 12 16 10    9    55.1   0.138      2
   6 12 16 10    9    120.5  0.185      3
   6 12 16 10    9    159.4  0.476      4
   6 12 16 11    9    -31.7  0.605      1
   6 12 16 11    9    -118.3  0.502      2
   6 12 16 11    9    -164.2  0.769      3
   6 12 16 11    9    176.7  0.878      4
   6 14  7  9    9    9.4    90.333      1
   6 14 15  9    11    158.8   0.2153  -0.00206  -0.6962  -0.08765   0.6792
   6 16 10 18    9    -7.3   13.999      1
   6 16 10 18    9    168.2  3.103      2
   6 16 10 18    9    151.9  3.559      3
   6 16 10 18    9    -34.3  1.726      4
   6 16 10 18    9    -51.6  2.829      5
   6 16 10 18    9    -54.1  1.154      6
   6 16 11 18    9    -3.4   5.138      1
   7  9 14 15    9    -1.7   75.579      1
   7 14  6 12    9    -45.2  13.634      1
   7 14  6 12    9    84.3   3.946      2
   7 14  6 12    9    57.4   3.133      3
   7 14  6 12    9    -169.6  2.331      4
   7 14  6 12    9    133.9  2.505      5
   7 14  6 12    9    37.6   0.692      6
   7 14  6 16    9    -37.2  14.017      1
   7 14  6 16    9    79.7   0.222      2
   7 14  6 16    9    76.1   3.473      3
   7 14  6 16    9    11.7   1.333      4
   7 14  6 16    9    -146.7  1.286      5
   7 14  6 16    9    144.5  1.261      6
   7 14  9 15    9    -1.3   75.579      1
   8 19 18 10    9    -28.5  13.662      1
   8 19 18 10    9    110.4  1.250      2
   8 19 18 10    9    97.4   3.858      3
   8 19 18 10    9    123.9  0.576      4
   8 19 18 10    9    49.2   1.299      5
   8 19 18 11    9    -29.1  13.597      1
   8 19 18 11    9    121.0  1.940      2
   8 19 18 11    9    91.7   3.707      3
   8 19 18 11    9    -147.3  0.533      4
   8 19 18 11    9    55.7   0.930      5
   8 19 20 18    9    13.7   57.048      1
   8 20 18 10    9    10.2   13.945      1
   8 20 18 10    9    -43.0  0.882      2
   8 20 18 10    9    -153.9  5.062      3
   8 20 18 10    9    -158.1  3.829      4
   8 20 18 10    9    -89.2  2.149      5
   8 20 18 11    9    28.8   13.584      1
   8 20 18 11    9    -133.1  2.112      2
   8 20 18 11    9    -88.9  3.542      3
   8 20 18 11    9    69.4   1.252      4
   8 20 18 11    9    -21.2  0.506      5
   8 20 19 18    9    -16.7  57.048      1
  10 16  6 12    9    61.8   0.022      1
  10 16  6 12    9    -178.0  0.088      2
  10 16  6 14    9    18.8   0.332      1
  10 16  6 14    9    94.9   0.065      2
  10 16  6 14    9    -2.5   0.495      3
  11 16  6 12    9    -7.5   0.294      1
  11 16  6 12    9    -177.8  0.230      2
  11 16  6 14    9    -112.0  0.472      1
  11 16  6 14    9    -56.5  0.326      2
  12  6 14 15    11    56.38   0.02601  -0.3138   0.8335   0.4387  -0.1169
  12 16  6 14    9    103.2  0.644      1
  12 16  6 14    9    -113.5  0.227      2
  12 16  6 14    9    165.5  0.382      3
  12 16 10 18    9    1.7    1.653      1
  12 16 10 18    9    124.7  0.266      2
  12 16 10 18    9    165.0  0.442      3
  12 16 10 18    9    174.3  0.929      4
  12 16 11 18    9    5.2    1.896      1
  12 16 11 18    9    24.4   0.562      2
  12 16 11 18    9    160.5  0.702      3
  12 16 11 18    9    172.7  1.253      4
  14  6 12 16    9    -78.3  0.605      1
  14  6 12 16    9    -116.2  0.136      2
  14  6 12 16    9    -9.7   0.458      3
  15 14  6 16    11    65   0.001118   0.1567   0.9105  -0.08408  -0.3734
  16 10 11 18    9    -1.3   72.398      1
  16 10 18 19    9    23.4   1.812      1
  16 10 18 19    9    57.4   1.968      2
  16 10 18 20    9    -25.0  2.040      1
  16 10 18 20    9    -60.5  1.675      2
  16 11 10 18    9    -1.7   72.398      1
  16 11 18 19    9    30.1   1.591      1
  16 11 18 19    9    52.5   1.355      2
  16 11 18 20    9    -30.1  1.223      1
  16 11 18 20    9    -53.1  1.350      2


[virtual_sites3]
; site  i  j  k  funct  params...
  1 6 12 16 3 59.881 0.212
  13 6 12 16 3 35.715 0.415
  17 6 12 16 3 -21.047 0.270


[exclusions]
  1 4
  1 6
  1 12
  1 13
  1 14
  1 16
  1 17
  2 3
  2 4
  2 5
  3 4
  3 5
  4 5
  4 6
  4 14
  4 17
  5 6
  6 7
  6 9
  6 12
  6 13
  6 14
  6 15
  6 16
  6 17
  7 9
  7 14
  7 15
  8 18
  8 19
  8 20
  9 14
  9 15
  10 11
  10 12
  10 13
  10 16
  10 18
  10 19
  10 20
  11 12
  11 13
  11 16
  11 18
  11 19
  11 20
  12 13
  12 16
  12 17
  13 16
  13 17
  14 15
  14 17
  16 17
  16 18
  18 19
  18 20
  19 20

#ifndef POSRES_FC
#define POSRES_FC 1000.0
#endif
[ position_restraints ]
#ifdef POSRES
    1 1 POSRES_FC POSRES_FC POSRES_FC
    2 1 POSRES_FC POSRES_FC POSRES_FC
    3 1 POSRES_FC POSRES_FC POSRES_FC
    4 1 POSRES_FC POSRES_FC POSRES_FC
    5 1 POSRES_FC POSRES_FC POSRES_FC
    6 1 POSRES_FC POSRES_FC POSRES_FC
    7 1 POSRES_FC POSRES_FC POSRES_FC
    8 1 POSRES_FC POSRES_FC POSRES_FC
    9 1 POSRES_FC POSRES_FC POSRES_FC
   10 1 POSRES_FC POSRES_FC POSRES_FC
   11 1 POSRES_FC POSRES_FC POSRES_FC
   12 1 POSRES_FC POSRES_FC POSRES_FC
   13 1 POSRES_FC POSRES_FC POSRES_FC
   14 1 POSRES_FC POSRES_FC POSRES_FC
   15 1 POSRES_FC POSRES_FC POSRES_FC
   16 1 POSRES_FC POSRES_FC POSRES_FC
   17 1 POSRES_FC POSRES_FC POSRES_FC
   18 1 POSRES_FC POSRES_FC POSRES_FC
   19 1 POSRES_FC POSRES_FC POSRES_FC
   20 1 POSRES_FC POSRES_FC POSRES_FC
#endif
