; GENERATED WITH smartini for FTA
; Developed by: DY
; SMILES code : [H]C(=C(C#N)c1nnn([H])n1)N([H])c1c([H])c([H])c(N([H])c2c([H])c([H])c([H])c([H])c2[H])c([H])c1[H]
; Mapping: [[0, 7, 23], [1, 6, 28], [2, 3, 24, 25], [4, 5, 26, 27], [8, 9, 29, 30], [10, 11, 31, 32], [12, 13, 33], [14, 15, 18, 34], [16, 17], [19, 20, 35], [21, 22]]
; Ringbeads: [[1, 2, 3], [0, 4, 5, 6], [7, 9, 10]]

[moleculetype]
; molname       nrexcl
  FTA           2


[atoms]
;id type resn res    atom  cgnr chrg  mass ; atomnames      ; smiles         ; logp_origin
1   TN5d  1   FTA    N01    1    0.0  36.0   ; N1, C7         ; CN             ;          
2   TC5   1   FTA    C02    2    0.0  36.0   ; C1, C6         ; C=C            ;          
3   TC5   1   FTA    C03    3    0.0  36.0   ; C2, C3         ; C=C            ;          
4   TC5   1   FTA    C04    4    0.0  36.0   ; C4, C5         ; C=C            ;          
5   TC5   1   FTA    C05    5    0.0  36.0   ; C8, C9         ; C=C            ;          
6   TC5   1   FTA    C06    6    0.0  36.0   ; C10, C11       ; C=C            ;          
7   TN5d  1   FTA    N07    7    0.0  36.0   ; C12, N2        ; CN             ;          
8   SC2   1   FTA    C08    8    0.0  54.0   ; C13, C14, C16  ; CC=C           ;          
9   TN2   1   FTA    N09    9    0.0  36.0   ; C15, N3        ; C#N            ;          
10  TP2d  1   FTA    P10    10   0.0  36.0   ; N4, N5         ; NN             ;          
11  TP2d  1   FTA    P11    11   0.0  36.0   ; N6, N7         ; NN             ;          


[bonds]
;  i  j     funct   length   force.c.
   1  2        1      0.241       50000.0 ; ring-ring link
   1  5        1      0.283       50000.0
   1  6        1      0.319       50000.0
   5  7        1      0.284       50000.0
   7  8        1      0.230       50000.0 ; ring-ring link
   8  9        1      0.241       50000.0
   8 11        1      0.324       50000.0


[constraints]
;  i   j     funct   length
   2  3        1      0.303
   2  4        1      0.259
   3  4        1      0.292
   6  7        1      0.322
   8 10        1      0.392
  10 11        1      0.193
   5  6        1      0.338 ; ring_diagonal


[angles]
;  i  j  k    funct  angle  force.c.
   1  2  3       10    83.7   1086.6
   1  2  4       10    145.4  739.0
   1  5  7       10    122.3  1249.2
   1  6  7       10    101.8  1507.8
   2  1  5       10    148.5    4.2
   2  1  6       10    97.1     9.1
   5  7  8        1    168.7   44.0
   6  7  8       10    107.9  923.4
   7  8  9        1    167.3  367.9
   7  8 10       10    106.8  477.8
   7  8 11       10    78.8   620.1
   9  8 10       10    84.7   583.9
   9  8 11       10    112.8  571.2


[dihedrals]
;  i  j  k  l  funct  parameters...
   1  2  3  4    9    -1.5   73.382      1
   1  2  4  3    9    178.3  22.861      1
   1  5  6  7    9    -3.6   3.168      1
   1  5  6  7    9    173.5  3.149      2
   1  5  6  7    9    -8.4   2.934      3
   1  5  6  7    9    171.0  2.275      4
   1  5  6  7    9    -4.4   0.870      5
   1  5  6  7    9    -18.5  1.635      6
   1  5  7  8    11    61.32   0.08382  -0.4645   0.5858   0.4541  -0.4774
   1  6  5  7    9    0.6    3.168      1
   1  6  5  7    9    -179.5  3.149      2
   1  6  5  7    9    -0.6   2.934      3
   1  6  5  7    9    177.0  2.275      4
   1  6  5  7    9    -10.6  0.870      5
   1  6  5  7    9    0.5    1.635      6
   1  6  7  8    9    -2.0   18.272      1
   2  1  5  7    9    -69.7  0.904      1
   2  1  5  7    9    -80.2  1.262      2
   2  1  6  7    9    6.5    13.918      1
   2  1  6  7    9    -143.6  1.011      2
   2  1  6  7    9    -167.8  3.411      3
   2  1  6  7    9    -148.5  0.760      4
   2  1  6  7    9    50.1   1.392      5
   2  1  6  7    9    84.2   1.439      6
   3  2  1  5    9    -30.7  1.429      1
   3  2  1  5    9    -164.0  0.383      2
   3  2  1  5    9    24.4   0.541      3
   3  2  1  6    9    44.4   10.924      1
   3  2  1  6    9    80.6   7.235      2
   3  2  1  6    9    114.0  4.935      3
   4  2  1  5    9    -26.1  1.401      1
   4  2  1  5    9    -155.7  0.288      2
   4  2  1  5    9    20.3   0.458      3
   4  2  1  6    9    51.3   4.644      1
   4  2  1  6    9    75.8   2.798      2
   4  2  1  6    9    105.7  2.812      3
   5  7  8  9    11    23.1   0.3034  -0.7731   0.2692   0.4581  -0.1675
   5  7  8 10    11    49.01   0.1812   0.641   0.3853  -0.5629  -0.3015
   5  7  8 11    11    50.01   0.1589   0.6073   0.4585  -0.5131  -0.364
   6  7  8  9    11    69.05   0.3521   0.02612  -0.6444  -0.3252   0.5952
   6  7  8 10    9    -1.5   8.740      1
   6  7  8 11    9    -0.9   7.673      1
   7  8 10 11    9    177.9  4.588      1
   7  8 11 10    9    -2.0   4.778      1
   9  8 10 11    9    -1.8   6.608      1
   9  8 11 10    9    178.6  5.559      1



[exclusions]
  1 2
  1 3
  1 4
  1 5
  1 6
  1 7
  2 3
  2 4
  2 5
  2 6
  3 4
  5 6
  5 7
  5 8
  6 7
  6 8
  7 8
  7 9
  7 10
  7 11
  8 9
  8 10
  8 11
  9 10
  9 11
  10 11

#ifndef POSRES_FC
#define POSRES_FC 1000.0
#endif
[ position_restraints ]
#ifdef POSRES
    1 1 POSRES_FC POSRES_FC POSRES_FC
    2 1 POSRES_FC POSRES_FC POSRES_FC
    3 1 POSRES_FC POSRES_FC POSRES_FC
    4 1 POSRES_FC POSRES_FC POSRES_FC
    5 1 POSRES_FC POSRES_FC POSRES_FC
    6 1 POSRES_FC POSRES_FC POSRES_FC
    7 1 POSRES_FC POSRES_FC POSRES_FC
    8 1 POSRES_FC POSRES_FC POSRES_FC
    9 1 POSRES_FC POSRES_FC POSRES_FC
   10 1 POSRES_FC POSRES_FC POSRES_FC
   11 1 POSRES_FC POSRES_FC POSRES_FC
#endif
