; GENERATED WITH smartini for FTA
; Developed by: DY
; SMILES code : [H]C(=C(C#N)c1nnn([H])n1)N([H])c1c([H])c([H])c(N([H])c2c([H])c([H])c([H])c([H])c2[H])c([H])c1[H]
; Mapping: [[0, 7, 23], [6, 1, 1, 2, 28, 24], [2, 3, 3, 4, 24, 25, 26], [4, 5, 5, 6, 26, 27, 28], [8, 9, 29, 30], [10, 11, 31, 32], [12, 13, 33], [14, 15, 18, 34], [16, 17], [19, 20, 35], [21, 22]]
; Ringbeads: [[1, 2, 3], [0, 4, 5, 6], [7, 9, 10]]

[moleculetype]
; molname       nrexcl
  FTA           2


[atoms]
;id type resn res    atom  cgnr chrg  mass ; atomnames      ; smiles         ; logp_origin
1   TN5d  1   FTA    N01    1    0.0  36.0   ; N1, C7         ; CN             ;          
2   TC5   1   FTA    C02    2    0.0  36.0   ; C1, C6         ; C=C            ;          
3   TC5   1   FTA    C03    3    0.0  36.0   ; C2, C3         ; C=C            ;          
4   TC5   1   FTA    C04    4    0.0  36.0   ; C4, C5         ; C=C            ;          
5   TC5   1   FTA    C05    5    0.0  36.0   ; C8, C9         ; C=C            ;          
6   TC5   1   FTA    C06    6    0.0  36.0   ; C10, C11       ; C=C            ;          
7   TN5d  1   FTA    N07    7    0.0  36.0   ; C12, N2        ; CN             ;          
8   SC2   1   FTA    C08    8    0.0  54.0   ; C13, C14, C16  ; CC=C           ;          
9   TN2   1   FTA    N09    9    0.0  36.0   ; C15, N3        ; C#N            ;          
10  TP2d  1   FTA    P10    10   0.0  36.0   ; N4, N5         ; NN             ;          
11  TP2d  1   FTA    P11    11   0.0  36.0   ; N6, N7         ; NN             ;          


[bonds]
;  i  j     funct   length   force.c.
   1  2        1      0.213       50000.0 ; ring-ring link
   1  5        1      0.283       50000.0
   1  6        1      0.319       50000.0
   5  7        1      0.284       50000.0
   7  8        1      0.230       50000.0 ; ring-ring link
   8  9        1      0.241       50000.0
   8 11        1      0.324       50000.0


[constraints]
;  i   j     funct   length
   2  3        1      0.211
   2  4        1      0.211
   3  4        1      0.228
   6  7        1      0.322
   8 10        1      0.392
  10 11        1      0.193
   5  6        1      0.338 ; ring_diagonal


[angles]
;  i  j  k    funct  angle  force.c.
   1  2  3       10    147.0  625.5
   1  2  4       10    147.0  647.8
   1  5  7       10    122.3  1352.4
   1  6  7       10    101.8  1483.9
   2  1  5       10    153.0   74.7
   2  1  6       10    96.8   587.9
   5  7  8        1    168.7   41.5
   6  7  8       10    107.9  927.7
   7  8  9        1    167.2  362.7
   7  8 10       10    106.8  465.4
   7  8 11       10    78.8   596.9
   9  8 10       10    84.7   566.6
   9  8 11       10    112.8  570.0


[dihedrals]
;  i  j  k  l  funct  parameters...
   1  2  3  4    9    -1.9   18.890      1
   1  2  4  3    9    -1.3   18.403      1
   1  5  6  7    9    -3.7   3.176      1
   1  5  6  7    9    173.4  3.155      2
   1  5  6  7    9    -8.6   2.937      3
   1  5  6  7    9    170.8  2.274      4
   1  5  6  7    9    -4.9   0.865      5
   1  5  6  7    9    -18.3  1.642      6
   1  5  7  8    11    60.18   0.08453  -0.4687   0.5867   0.4544  -0.4717
   1  6  5  7    9    0.7    3.176      1
   1  6  5  7    9    -179.4  3.155      2
   1  6  5  7    9    -0.4   2.937      3
   1  6  5  7    9    177.2  2.274      4
   1  6  5  7    9    -10.1  0.865      5
   1  6  5  7    9    0.3    1.642      6
   1  6  7  8    9    -1.8   18.177      1
   2  1  5  7    9    -178.8  3.491      1
   2  1  5  7    9    0.3    1.841      2
   2  1  5  7    9    -6.4   0.515      3
   2  1  6  7    9    -8.0   14.025      1
   2  1  6  7    9    177.2  1.670      2
   2  1  6  7    9    150.5  3.758      3
   2  1  6  7    9    47.5   0.093      4
   2  1  6  7    9    -33.6  2.720      5
   2  1  6  7    9    -23.4  1.994      6
   3  2  1  5    9    -85.7  0.565      1
   3  2  1  5    9    176.0  1.628      2
   3  2  1  6    9    51.5   5.347      1
   3  2  1  6    9    90.4   3.367      2
   3  2  1  6    9    115.8  3.225      3
   4  2  1  5    9    88.3   0.613      1
   4  2  1  5    9    172.4  1.655      2
   4  2  1  6    9    -89.9  7.635      1
   4  2  1  6    9    -175.7  2.057      2
   4  2  1  6    9    -97.4  2.073      3
   5  7  8  9    11    23.04   0.3018  -0.7717   0.2731   0.4573  -0.1724
   5  7  8 10    11    51.07   0.1796   0.6274   0.3745  -0.5763  -0.3191
   5  7  8 11    11    52.14   0.1573   0.5936   0.4451  -0.5287  -0.3811
   6  7  8  9    11    68.72   0.3533   0.02675  -0.6514  -0.3153   0.5922
   6  7  8 10    9    -1.8   8.687      1
   6  7  8 11    9    -1.0   7.658      1
   7  8 10 11    9    177.9  4.518      1
   7  8 11 10    9    -1.9   4.864      1
   9  8 10 11    9    -1.8   6.850      1
   9  8 11 10    9    178.5  5.739      1



[exclusions]
  1 2
  1 3
  1 4
  1 5
  1 6
  1 7
  2 3
  2 4
  2 5
  2 6
  3 4
  5 6
  5 7
  5 8
  6 7
  6 8
  7 8
  7 9
  7 10
  7 11
  8 9
  8 10
  8 11
  9 10
  9 11
  10 11

#ifndef POSRES_FC
#define POSRES_FC 1000.0
#endif
[ position_restraints ]
#ifdef POSRES
    1 1 POSRES_FC POSRES_FC POSRES_FC
    2 1 POSRES_FC POSRES_FC POSRES_FC
    3 1 POSRES_FC POSRES_FC POSRES_FC
    4 1 POSRES_FC POSRES_FC POSRES_FC
    5 1 POSRES_FC POSRES_FC POSRES_FC
    6 1 POSRES_FC POSRES_FC POSRES_FC
    7 1 POSRES_FC POSRES_FC POSRES_FC
    8 1 POSRES_FC POSRES_FC POSRES_FC
    9 1 POSRES_FC POSRES_FC POSRES_FC
   10 1 POSRES_FC POSRES_FC POSRES_FC
   11 1 POSRES_FC POSRES_FC POSRES_FC
#endif
