; GENERATED WITH smartini for THC
; Developed by: DY
; SMILES code : [H]Oc1c([H])c(C([H])([H])C([H])([H])C([H])([H])C([H])([H])C([H])([H])[H])c([H])c2c1C1([H])C([H])=C(C([H])([H])[H])C([H])([H])C([H])([H])C1([H])C(C([H])([H])[H])(C([H])([H])[H])O2
; Mapping: [[0, 6, 10], [1, 13, 45], [2, 5, 7, 23, 25, 26, 27, 28], [3, 8, 24, 29], [4, 11, 12, 30, 31, 32, 33, 34, 35], [9, 15, 37, 38, 39], [14, 16, 17, 36, 40], [18, 19, 41, 42, 43, 44], [20, 21, 22, 46, 47, 48, 49, 50, 51, 52]]
; Ringbeads: [[0, 1, 2, 3, 4, 5, 6]]

[moleculetype]
; molname       nrexcl
  THC           2


[atoms]
;id type resn res    atom  cgnr chrg  mass ; atomnames      ; smiles         ; logp_origin
1   SP1a  1   THC    P01    1    0.0  54.0   ; O1, C5, C9     ; C=CO           ;          
2   TP2d  1   THC    P02    2    0.0  36.0   ; O2, C12        ; CO             ;          
3   SC3   1   THC    C03    3    0.0  54.0   ; C1, C4, C6     ; CCC            ;          
4   TC3   1   THC    C04    4    0.0  36.0   ; C2, C7         ; CC             ;          
5   SC3   1   THC    C05    5    0.0  54.0   ; C3, C10, C11   ; CCC            ;          
6   TC3   1   THC    C06    6    0.0  36.0   ; C8, C14        ; CC             ;          
7   SC5   1   THC    C07    7    0.0  54.0   ; C13, C15, C16  ; CC=C           ;          
8   TC3   1   THC    C08    8    0.0  36.0   ; C17, C18       ; CC             ;          
9   SC3   1   THC    C09    9    0.0  54.0   ; C19, C20, C21  ; CCC            ;          


[bonds]
;  i  j     funct   length   force.c.
   1  2        1      0.331       13909.0
   1  4        1      0.291       50000.0
   1  5        1      0.292       50000.0
   2  7        1      0.313       26179.2
   3  4        1      0.273       50000.0
   3  5        1      0.335       39244.5
   3  6        1      0.344       50000.0
   4  6        1      0.318       50000.0
   7  8        1      0.232       20436.2
   8  9        1      0.313       4245.8


[constraints]
;  i   j     funct   length
   1  7        1      0.253


[angles]
;  i  j  k    funct  angle  force.c.
   1  4  3       10    90.5   698.1
   1  4  6       10    142.2  124.0
   1  5  3       10    79.2   2000.0
   1  7  8       10    148.3   73.2
   2  1  4       10    45.9   269.9
   2  1  5       10    127.5   97.7
   2  7  8       10    134.3   41.3
   4  1  5       10    92.2   1702.5
   4  1  7       10    106.9  2000.0
   4  3  5       10    86.7   1269.7
   5  1  7       10    153.6  150.5
   5  3  6       10    145.7  722.0
   7  8  9       10    153.5    6.1


[dihedrals]
;  i  j  k  l  funct  parameters...
   1  2  7  8    9    1.0    6.829      1
   1  2  7  8    9    177.6  1.740      2
   1  2  7  8    9    -167.6  1.638      3
   1  2  7  8    9    6.9    0.791      4
   1  2  7  8    9    22.2   1.647      5
   1  2  7  8    9    14.9   1.406      6
   1  4  3  6    9    30.7   37.308      1
   1  4  6  3    9    -117.9  35.883      1
   1  5  3  6    9    169.3  17.079      1
   1  7  8  9    9    -169.0  0.360      1
   1  7  8  9    9    -83.4  0.077      2
   2  1  4  3    9    8.3    39.869      1
   2  1  4  6    9    -50.4  65.580      1
   2  1  5  3    9    -127.2  91.644      1
   2  1  7  8    9    -4.0   6.937      1
   2  1  7  8    9    -171.7  0.989      2
   2  1  7  8    9    162.7  1.877      3
   2  1  7  8    9    72.0   0.569      4
   2  1  7  8    9    105.2  0.437      5
   2  7  1  4    9    -166.5  93.051      1
   2  7  1  5    9    56.7   20.937      1
   2  7  8  9    9    64.3   0.220      1
   3  4  1  7    9    -11.5  39.506      1
   3  5  1  7    9    -21.1  38.927      1
   4  1  2  7    9    19.0   39.591      1
   4  1  7  8    9    14.6   14.046      1
   4  1  7  8    9    22.2   0.316      2
   4  1  7  8    9    -138.2  3.991      3
   4  1  7  8    9    -123.7  1.939      4
   4  1  7  8    9    -133.3  1.417      5
   4  6  3  5    9    160.8  10.470      1
   5  1  2  7    9    -27.3  16.823      1
   5  1  4  6    9    93.0   111.137      1
   5  1  7  8    9    -136.1  14.092      1
   5  1  7  8    9    65.1   1.529      2
   5  1  7  8    9    125.8  4.037      3
   5  1  7  8    9    -22.6  3.230      4
   5  1  7  8    9    -134.2  1.536      5
   5  3  4  6    9    -10.6  29.594      1
   6  4  1  7    9    -69.0  66.037      1



[exclusions]
  1 2
  1 3
  1 4
  1 5
  1 6
  1 7
  1 8
  2 3
  2 4
  2 5
  2 6
  2 7
  2 8
  3 4
  3 5
  3 6
  3 7
  4 5
  4 6
  4 7
  5 6
  5 7
  6 7
  7 8
  7 9
  8 9

#ifndef POSRES_FC
#define POSRES_FC 1000.0
#endif
[ position_restraints ]
#ifdef POSRES
    1 1 POSRES_FC POSRES_FC POSRES_FC
    2 1 POSRES_FC POSRES_FC POSRES_FC
    3 1 POSRES_FC POSRES_FC POSRES_FC
    4 1 POSRES_FC POSRES_FC POSRES_FC
    5 1 POSRES_FC POSRES_FC POSRES_FC
    6 1 POSRES_FC POSRES_FC POSRES_FC
    7 1 POSRES_FC POSRES_FC POSRES_FC
    8 1 POSRES_FC POSRES_FC POSRES_FC
    9 1 POSRES_FC POSRES_FC POSRES_FC
#endif
