; GENERATED WITH smartini for THC
; Developed by: DY
; SMILES code : [H]Oc1c([H])c(C([H])([H])C([H])([H])C([H])([H])C([H])([H])C([H])([H])[H])c([H])c2c1C1([H])C([H])=C(C([H])([H])[H])C([H])([H])C([H])([H])C1([H])C(C([H])([H])[H])(C([H])([H])[H])O2
; Mapping: [[0, 6, 10], [1, 13, 45], [2, 5, 7, 23, 25, 26, 27, 28], [3, 8, 24, 29], [4, 11, 12, 30, 31, 32, 33, 34, 35], [9, 15, 37, 38, 39], [14, 16, 17, 36, 40], [18, 19, 41, 42, 43, 44], [20, 21, 22, 46, 47, 48, 49, 50, 51, 52]]
; Ringbeads: [[0, 1, 2, 3, 4, 5, 6]]

[moleculetype]
; molname       nrexcl
  THC           2


[atoms]
;id type resn res    atom  cgnr chrg  mass ; atomnames      ; smiles         ; logp_origin
1   SP1a  1   THC    P01    1    0.0  54.0   ; O1, C5, C9     ; C=CO           ;          
2   TP2d  1   THC    P02    2    0.0  36.0   ; O2, C12        ; CO             ;          
3   SC3   1   THC    C03    3    0.0  54.0   ; C1, C4, C6     ; CCC            ;          
4   TC3   1   THC    C04    4    0.0  36.0   ; C2, C7         ; CC             ;          
5   SC3   1   THC    C05    5    0.0  54.0   ; C3, C10, C11   ; CCC            ;          
6   TC3   1   THC    C06    6    0.0  36.0   ; C8, C14        ; CC             ;          
7   SC5   1   THC    C07    7    0.0  54.0   ; C13, C15, C16  ; CC=C           ;          
8   TC3   1   THC    C08    8    0.0  36.0   ; C17, C18       ; CC             ;          
9   SC3   1   THC    C09    9    0.0  54.0   ; C19, C20, C21  ; CCC            ;          


[bonds]
;  i  j     funct   length   force.c.
   1  2        1      0.331       15285.0
   1  4        1      0.291       50000.0
   1  5        1      0.292       50000.0
   2  7        1      0.313       32567.4
   3  4        1      0.273       50000.0
   3  5        1      0.335       50000.0
   3  6        1      0.344       50000.0
   4  6        1      0.318       50000.0
   7  8        1      0.232       22644.6
   8  9        1      0.314       4272.8


[constraints]
;  i   j     funct   length
   1  7        1      0.253


[angles]
;  i  j  k    funct  angle  force.c.
   1  4  3       10    90.5   580.7
   1  4  6       10    142.3  121.5
   1  5  3       10    79.2   2000.0
   1  7  8       10    149.2   80.8
   2  1  4       10    45.9   166.4
   2  1  5       10    127.7   39.2
   2  7  8       10    133.8   25.7
   4  1  5       10    92.2   1896.1
   4  1  7       10    106.9  2000.0
   4  3  5       10    86.7   1149.5
   5  1  7       10    153.8  118.5
   5  3  6       10    145.7  673.6
   7  8  9       10    164.5    8.6


[dihedrals]
;  i  j  k  l  funct  parameters...
   1  2  7  8    9    1.3    6.734      1
   1  2  7  8    9    178.2  1.866      2
   1  2  7  8    9    -164.8  1.454      3
   1  2  7  8    9    10.2   0.740      4
   1  2  7  8    9    24.1   1.547      5
   1  2  7  8    9    11.8   1.527      6
   1  4  3  6    9    29.0   25.199      1
   1  4  6  3    9    -121.1  14.026      1
   1  5  3  6    9    169.0  15.482      1
   1  7  8  9    9    -168.7  0.364      1
   1  7  8  9    9    -84.9  0.080      2
   2  1  4  3    9    13.7   13.791      1
   2  1  4  6    9    -49.6  61.568      1
   2  1  5  3    9    -127.2  91.099      1
   2  1  7  8    9    -3.9   6.890      1
   2  1  7  8    9    -172.0  1.076      2
   2  1  7  8    9    161.9  1.771      3
   2  1  7  8    9    71.9   0.577      4
   2  1  7  8    9    117.0  0.478      5
   2  7  1  4    9    -166.3  126.739      1
   2  7  1  5    9    56.7   18.058      1
   2  7  8  9    9    66.6   0.225      1
   3  4  1  7    9    -13.9  10.210      1
   3  5  1  7    9    -20.7  38.269      1
   4  1  2  7    9    20.2   40.130      1
   4  1  7  8    9    14.5   14.029      1
   4  1  7  8    9    25.9   0.281      2
   4  1  7  8    9    -138.3  3.956      3
   4  1  7  8    9    -122.9  1.930      4
   4  1  7  8    9    -133.3  1.458      5
   4  6  3  5    9    161.0  9.464      1
   5  1  2  7    9    138.2  6.420      1
   5  1  4  6    9    93.5   103.398      1
   5  1  7  8    9    -136.1  14.094      1
   5  1  7  8    9    65.4   1.517      2
   5  1  7  8    9    125.6  4.041      3
   5  1  7  8    9    -22.3  3.215      4
   5  1  7  8    9    -134.1  1.537      5
   5  3  4  6    9    -10.0  25.114      1
   6  4  1  7    9    -69.0  57.160      1



[exclusions]
  1 2
  1 3
  1 4
  1 5
  1 6
  1 7
  1 8
  2 3
  2 4
  2 5
  2 6
  2 7
  2 8
  3 4
  3 5
  3 6
  3 7
  4 5
  4 6
  4 7
  5 6
  5 7
  6 7
  7 8
  7 9
  8 9

#ifndef POSRES_FC
#define POSRES_FC 1000.0
#endif
[ position_restraints ]
#ifdef POSRES
    1 1 POSRES_FC POSRES_FC POSRES_FC
    2 1 POSRES_FC POSRES_FC POSRES_FC
    3 1 POSRES_FC POSRES_FC POSRES_FC
    4 1 POSRES_FC POSRES_FC POSRES_FC
    5 1 POSRES_FC POSRES_FC POSRES_FC
    6 1 POSRES_FC POSRES_FC POSRES_FC
    7 1 POSRES_FC POSRES_FC POSRES_FC
    8 1 POSRES_FC POSRES_FC POSRES_FC
    9 1 POSRES_FC POSRES_FC POSRES_FC
#endif
