; GENERATED WITH smartini for THC
; Developed by: DY
; SMILES code : [H]Oc1c([H])c(C([H])([H])C([H])([H])C([H])([H])C([H])([H])C([H])([H])[H])c([H])c2c1C1([H])C([H])=C(C([H])([H])[H])C([H])([H])C([H])([H])C1([H])C(C([H])([H])[H])(C([H])([H])[H])O2
; Mapping: [[0, 6, 10], [1, 13, 45], [2, 5, 7, 23, 25, 26, 27, 28], [3, 8, 24, 29], [4, 11, 12, 30, 31, 32, 33, 34, 35], [9, 15, 37, 38, 39], [14, 16, 17, 36, 40], [18, 19, 41, 42, 43, 44], [20, 21, 22, 46, 47, 48, 49, 50, 51, 52]]
; Ringbeads: [[0, 1, 2, 3, 4, 5, 6]]

[moleculetype]
; molname       nrexcl
  THC           2


[atoms]
;id type resn res    atom  cgnr chrg  mass ; atomnames      ; smiles         ; logp_origin
1   SP1a  1   THC    P01    1    0.0  54.0   ; O1, C5, C9     ; C=CO           ;          
2   TP2d  1   THC    P02    2    0.0  36.0   ; O2, C12        ; CO             ;          
3   SC3   1   THC    C03    3    0.0  54.0   ; C1, C4, C6     ; CCC            ;          
4   TC3   1   THC    C04    4    0.0  36.0   ; C2, C7         ; CC             ;          
5   SC3   1   THC    C05    5    0.0  54.0   ; C3, C10, C11   ; CCC            ;          
6   TC3   1   THC    C06    6    0.0  36.0   ; C8, C14        ; CC             ;          
7   SC5   1   THC    C07    7    0.0  54.0   ; C13, C15, C16  ; CC=C           ;          
8   TC3   1   THC    C08    8    0.0  36.0   ; C17, C18       ; CC             ;          
9   SC3   1   THC    C09    9    0.0  54.0   ; C19, C20, C21  ; CCC            ;          


[bonds]
;  i  j     funct   length   force.c.
   1  2        1      0.331       14549.9
   1  4        1      0.291       50000.0
   1  5        1      0.292       50000.0
   2  7        1      0.313       29677.2
   3  4        1      0.273       50000.0
   3  5        1      0.335       48977.8
   3  6        1      0.344       50000.0
   4  6        1      0.318       50000.0
   7  8        1      0.232       22815.9
   8  9        1      0.314       4310.1


[constraints]
;  i   j     funct   length
   1  7        1      0.253


[angles]
;  i  j  k    funct  angle  force.c.
   1  4  3       10    90.5   626.7
   1  4  6       10    142.4  123.0
   1  5  3       10    79.2   2000.0
   1  7  8       10    148.9   78.7
   2  1  4       10    45.9   209.7
   2  1  5       10    127.5   61.3
   2  7  8       10    134.0   31.6
   4  1  5       10    92.2   1775.7
   4  1  7       10    106.9  2000.0
   4  3  5       10    86.7   1188.7
   5  1  7       10    153.7  121.7
   5  3  6       10    145.7  649.0
   7  8  9       10    159.2    7.6


[dihedrals]
;  i  j  k  l  funct  parameters...
   1  2  7  8    9    1.2    6.784      1
   1  2  7  8    9    177.9  1.806      2
   1  2  7  8    9    -165.9  1.555      3
   1  2  7  8    9    8.5    0.776      4
   1  2  7  8    9    23.7   1.606      5
   1  2  7  8    9    13.0   1.447      6
   1  4  3  6    9    28.6   20.877      1
   1  4  6  3    9    -118.6  30.408      1
   1  5  3  6    9    168.6  14.197      1
   1  7  8  9    9    -167.1  0.360      1
   1  7  8  9    9    -82.9  0.073      2
   2  1  4  3    9    9.7    29.361      1
   2  1  4  6    9    -49.8  62.806      1
   2  1  5  3    9    -127.2  90.510      1
   2  1  7  8    9    -3.7   6.919      1
   2  1  7  8    9    -171.0  1.021      2
   2  1  7  8    9    162.7  1.839      3
   2  1  7  8    9    72.4   0.591      4
   2  1  7  8    9    109.3  0.447      5
   2  7  1  4    9    -166.3  106.696      1
   2  7  1  5    9    56.8   17.438      1
   2  7  8  9    9    70.7   0.231      1
   3  4  1  7    9    -12.4  21.823      1
   3  5  1  7    9    -20.9  36.141      1
   4  1  2  7    9    19.7   40.195      1
   4  1  7  8    9    14.7   14.051      1
   4  1  7  8    9    20.1   0.330      2
   4  1  7  8    9    -138.1  4.007      3
   4  1  7  8    9    -124.2  1.936      4
   4  1  7  8    9    -133.2  1.405      5
   4  6  3  5    9    161.9  6.636      1
   5  1  2  7    9    125.9  3.065      1
   5  1  4  6    9    93.1   106.946      1
   5  1  7  8    9    -136.1  14.089      1
   5  1  7  8    9    65.1   1.514      2
   5  1  7  8    9    125.6  4.032      3
   5  1  7  8    9    -22.5  3.217      4
   5  1  7  8    9    -133.9  1.550      5
   5  3  4  6    9    -10.1  25.035      1
   6  4  1  7    9    -69.0  59.275      1



[exclusions]
  1 2
  1 3
  1 4
  1 5
  1 6
  1 7
  1 8
  2 3
  2 4
  2 5
  2 6
  2 7
  2 8
  3 4
  3 5
  3 6
  3 7
  4 5
  4 6
  4 7
  5 6
  5 7
  6 7
  7 8
  7 9
  8 9

#ifndef POSRES_FC
#define POSRES_FC 1000.0
#endif
[ position_restraints ]
#ifdef POSRES
    1 1 POSRES_FC POSRES_FC POSRES_FC
    2 1 POSRES_FC POSRES_FC POSRES_FC
    3 1 POSRES_FC POSRES_FC POSRES_FC
    4 1 POSRES_FC POSRES_FC POSRES_FC
    5 1 POSRES_FC POSRES_FC POSRES_FC
    6 1 POSRES_FC POSRES_FC POSRES_FC
    7 1 POSRES_FC POSRES_FC POSRES_FC
    8 1 POSRES_FC POSRES_FC POSRES_FC
    9 1 POSRES_FC POSRES_FC POSRES_FC
#endif
