; GENERATED WITH smartini for ANP
; Developed by: DY
; SMILES code : [H]OC1([H])C([H])(n2c([H])nc3c(N([H])[H])nc([H])nc32)OC([H])(C([H])([H])OP(=O)([O-])OP(=O)([O-])N([H])P(=O)([O-])[O-])C1([H])O[H]
; Mapping: [[0, 5, 14, 16, 17, 37], [1, 8, 20], [2, 11, 22, 30], [3, 4, 33], [6, 13, 35, 36], [7, 12], [9, 19, 34], [10, 15], [18, 27, 29, 38, 39, 43], [21, 24, 40, 31], [23, 26, 41, 32], [25, 28, 42]]
; Ringbeads: [[3, 4, 5, 6, 7], [8, 9, 10, 11]]

[moleculetype]
; molname       nrexcl
  ANP           2


[atoms]
;id type resn res    atom  cgnr chrg  mass ; atomnames      ; smiles         ; logp_origin
1   D     1   ANP    D01    1    -2.0  72.0   ; P1, O1, O4, N5, O5; NP(=O)([O-])[O-];          
2   SQ1   1   ANP    Q02    2    -1.0  54.0   ; P2, O2, O6     ; O=P[O-]        ;          
3   Q1    1   ANP    Q03    3    -1.0  72.0   ; P3, O3, O7, O12; OP(=O)[O-]     ;          
4   TN6a  1   ANP    N04    4    0.0  60.0   ; C1, N1         ; CN             ;          
5   TN5d  1   ANP    N05    5    0.0  60.0   ; C2, N4         ; CN             ;          
6   TN6a  1   ANP    N06    6    0.0  0.0   ; N2, C4         ; CN             ;          
7   TN5   1   ANP    N07    7    0.0  60.0   ; C3, N6         ; CN             ;          
8   TN6a  1   ANP    N08    8    0.0  0.0   ; N3, C5         ; CN             ;          
9   SP2a  1   ANP    P09    9    0.0  54.0   ; C6, C10, O11   ; CCO            ;          
10  TP2d  1   ANP    P10    10   0.0  36.0   ; C7, O8         ; CO             ;          
11  TP2d  1   ANP    P11    11   0.0  36.0   ; C8, O9         ; CO             ;          
12  TP2a  1   ANP    P12    12   0.0  36.0   ; C9, O10        ; CO             ;          


[bonds]
;  i  j     funct   length   force.c.
   1  3        1      0.276       50000.0
   2  3        1      0.283       9341.4
   2  9        1      0.324       9398.9
   7 12        1      0.259       50000.0 ; ring-ring link
   9 10        1      0.286       6319.2
   9 12        1      0.314       47591.8
  10 11        1      0.215       11959.4
  11 12        1      0.235       15074.5
  10 12        1      0.293       3681.5 ; ring_diagonal
   4  5        1      0.327       50000.0 ; ring_anchor
   5  7        1      0.457       48820.6 ; ring_anchor


[constraints]
;  i   j     funct   length
   7  4        1      0.485 ; ring_anchor


[angles]
;  i  j  k    funct  angle  force.c.
   1  3  2        1    105.1   31.0
   2  9 10       10    142.3    3.7
   2  9 12       10    129.1   13.2
   3  2  9       10    93.4    56.6
   4  7 12       10    76.4   820.1
   5  7 12       10    116.3  359.9
   7 12  9       10    91.2    56.8
   7 12 11       10    85.0   176.5
   9 10 11       10    100.3   23.0
   9 12 11       10    88.5   501.7


[dihedrals]
;  i  j  k  l  funct  parameters...
   1  3  2  9    11    19.46   0.08367  -0.065   0.7177   0.1905  -0.6613
   2  9 10 11    9    76.9   1.416      1
   2  9 10 11    9    125.6  0.778      2
   2  9 10 11    9    -11.8  0.111      3
   2  9 10 11    9    64.4   0.407      4
   2  9 12  7    9    -136.0  2.191      1
   2  9 12  7    9    115.3  0.184      2
   2  9 12  7    9    -146.3  0.304      3
   2  9 12  7    9    -168.1  0.411      4
   2  9 12  7    9    27.1   0.488      5
   2  9 12 11    9    -49.2  3.281      1
   2  9 12 11    9    -89.5  1.479      2
   2  9 12 11    9    -161.1  0.817      3
   2  9 12 11    9    165.7  0.757      4
   2  9 12 11    9    93.5   0.752      5
   3  2  9 10    9    -2.1   1.909      1
   3  2  9 10    9    -13.5  0.493      2
   3  2  9 10    9    -162.1  0.045      3
   3  2  9 10    9    -110.8  0.207      4
   3  2  9 12    9    5.9    0.601      1
   3  2  9 12    9    115.6  0.763      2
   4  5  7 12    9    169.1  32.579      1
   4  7 12  9    9    27.3   18.783      1
   4  7 12 11    9    -61.1  15.576      1
   5  4  7 12    9    -10.1  38.415      1
   5  7 12  9    9    34.1   13.404      1
   5  7 12 11    9    -53.3  13.616      1
   7 12  9 10    9    75.7   13.306      1
   7 12  9 10    9    -27.7  3.589      2
   7 12  9 10    9    44.6   2.937      3
   7 12  9 10    9    -52.1  1.155      4
   7 12  9 10    9    10.4   3.952      5
   7 12  9 10    9    91.4   3.785      6
   7 12 11 10    9    -60.1  13.810      1
   7 12 11 10    9    55.0   3.410      2
   7 12 11 10    9    5.8    3.887      3
   7 12 11 10    9    118.8  2.041      4
   7 12 11 10    9    66.6   4.122      5
   7 12 11 10    9    -33.5  2.280      6
   9 10 12 11    9    -14.0  7.079      1
   9 10 12 11    9    132.3  2.326      2
   9 10 12 11    9    133.5  4.013      3
   9 10 12 11    9    176.9  1.491      4
   9 12 10 11    9    11.0   7.079      1
   9 12 10 11    9    -138.3  2.326      2
   9 12 10 11    9    -142.5  4.013      3
   9 12 10 11    9    171.1  1.491      4


[virtual_sites3]
; site  i  j  k  funct  params...
  6 4 5 7 3 45.483 0.354
  8 4 5 7 3 85.137 0.214


[exclusions]
  1 2
  1 3
  2 3
  2 9
  2 10
  2 12
  3 9
  4 5
  4 6
  4 7
  4 8
  5 6
  5 7
  5 8
  6 7
  6 8
  6 12
  7 8
  7 9
  7 10
  7 11
  7 12
  8 12
  9 10
  9 11
  9 12
  10 11
  10 12
  11 12

#ifndef POSRES_FC
#define POSRES_FC 1000.0
#endif
[ position_restraints ]
#ifdef POSRES
    1 1 POSRES_FC POSRES_FC POSRES_FC
    2 1 POSRES_FC POSRES_FC POSRES_FC
    3 1 POSRES_FC POSRES_FC POSRES_FC
    4 1 POSRES_FC POSRES_FC POSRES_FC
    5 1 POSRES_FC POSRES_FC POSRES_FC
    6 1 POSRES_FC POSRES_FC POSRES_FC
    7 1 POSRES_FC POSRES_FC POSRES_FC
    8 1 POSRES_FC POSRES_FC POSRES_FC
    9 1 POSRES_FC POSRES_FC POSRES_FC
   10 1 POSRES_FC POSRES_FC POSRES_FC
   11 1 POSRES_FC POSRES_FC POSRES_FC
   12 1 POSRES_FC POSRES_FC POSRES_FC
#endif
