; GENERATED WITH smartini for ANP
; Developed by: DY
; SMILES code : [H]OC1([H])C([H])(n2c([H])nc3c(N([H])[H])nc([H])nc32)OC([H])(C([H])([H])OP(=O)([O-])OP(=O)([O-])N([H])P(=O)([O-])[O-])C1([H])O[H]
; Mapping: [[0, 5, 14, 16, 17, 37], [1, 8, 20], [2, 11, 22, 30], [3, 4, 33], [6, 13, 35, 36], [7, 12], [9, 19, 34], [10, 15], [18, 27, 29, 38, 39, 43], [21, 24, 40, 31], [23, 26, 41, 32], [25, 28, 42]]
; Ringbeads: [[3, 4, 5, 6, 7], [1, 2, 8, 9, 10, 11]]

[moleculetype]
; molname       nrexcl
  ANP           2


[atoms]
;id type resn res    atom  cgnr chrg  mass ; atomnames      ; smiles         ; logp_origin
1   D     1   ANP    D01    1    -2.0  72.0   ; P1, O1, O4, N5, O5; NP(=O)([O-])[O-];          
2   SQ1   1   ANP    Q02    2    -1.0  54.0   ; P2, O2, O6     ; O=P[O-]        ;          
3   Q1    1   ANP    Q03    3    -1.0  72.0   ; P3, O3, O7, O12; OP(=O)[O-]     ;          
4   TN6a  1   ANP    N04    4    0.0  36.0   ; C1, N1         ; CN             ;          
5   TN5d  1   ANP    N05    5    0.0  36.0   ; C2, N4         ; CN             ;          
6   TN6a  1   ANP    N06    6    0.0  36.0   ; N2, C4         ; CN             ;          
7   TN5   1   ANP    N07    7    0.0  36.0   ; C3, N6         ; CN             ;          
8   TN6a  1   ANP    N08    8    0.0  36.0   ; N3, C5         ; CN             ;          
9   SP2a  1   ANP    P09    9    0.0  54.0   ; C6, C10, O11   ; CCO            ;          
10  TP2d  1   ANP    P10    10   0.0  36.0   ; C7, O8         ; CO             ;          
11  TP2d  1   ANP    P11    11   0.0  36.0   ; C8, O9         ; CO             ;          
12  TP2a  1   ANP    P12    12   0.0  36.0   ; C9, O10        ; CO             ;          


[bonds]
;  i  j     funct   length   force.c.
   1  3        1      0.277       50000.0
   2  3        1      0.282       9394.3
   2  9        1      0.322       9520.0
   4  5        1      0.327       44904.0
   5  6        1      0.260       38891.4
   7 12        1      0.259       50000.0 ; ring-ring link
   9 10        1      0.286       5717.7
   9 12        1      0.314       44881.1
  10 11        1      0.215       10262.9
  11 12        1      0.234       12449.4


[constraints]
;  i   j     funct   length
   4  8        1      0.215
   6  7        1      0.197
   6  8        1      0.231
   7  8        1      0.288


[angles]
;  i  j  k    funct  angle  force.c.
   1  3  2       10    109.4   19.9
   2  9 10       10    141.2    8.0
   2  9 12       10    124.5   14.9
   3  2  9       10    91.0    37.2
   4  5  6       10    74.2   1997.2
   4  8  6       10    106.7  1830.1
   4  8  7       10    149.2  972.2
   5  4  8       10    82.3   2000.0
   5  6  7        1    174.5  233.2
   5  6  8       10    96.5   1142.8
   6  7 12       10    115.7  506.3
   7 12  9       10    89.5    60.9
   7 12 11       10    84.4   176.6
   8  7 12       10    63.6   737.1
   9 10 11       10    100.2   43.8
   9 12 11       10    88.3   400.9
  10  9 12       10    58.0   111.9
  10 11 12       10    81.1    53.9


[dihedrals]
;  i  j  k  l  funct  parameters...
   1  3  2  9    9    3.2    1.072      1
   1  3  2  9    9    -18.0  0.583      2
   1  3  2  9    9    3.4    0.461      3
   2  9 10 11    9    79.5   1.192      1
   2  9 10 11    9    118.5  0.660      2
   2  9 10 11    9    4.6    0.084      3
   2  9 10 11    9    61.0   0.343      4
   2  9 12  7    9    -140.9  2.260      1
   2  9 12  7    9    79.1   0.181      2
   2  9 12  7    9    -152.4  0.338      3
   2  9 12  7    9    -172.7  0.362      4
   2  9 12  7    9    24.0   0.496      5
   2  9 12 11    9    -52.3  3.388      1
   2  9 12 11    9    -93.0  1.302      2
   2  9 12 11    9    -162.8  0.704      3
   2  9 12 11    9    166.7  0.828      4
   2  9 12 11    9    93.1   0.824      5
   3  2  9 10    9    -1.9   1.543      1
   3  2  9 10    9    -13.6  0.308      2
   3  2  9 10    9    -173.5  0.116      3
   3  2  9 10    9    -105.4  0.212      4
   3  2  9 12    9    4.3    0.549      1
   3  2  9 12    9    117.0  0.628      2
   4  5  6  7    11    45.63   0.01615   0.1973   0.8349  -0.1646  -0.4865
   4  8  6  7    9    -2.0   63.735      1
   4  8  7  6    9    177.8  17.921      1
   4  8  7 12    9    -11.6  26.312      1
   5  4  8  7    9    179.5  38.175      1
   5  6  7  8    11    25.6   0.01052   0.1476   0.8259  -0.1228  -0.53
   5  6  7 12    11    43.69   0.005314   0.1377   0.8535  -0.08349  -0.4956
   5  6  8  7    9    -1.5   50.091      1
   6  7 12  9    9    34.0   18.764      1
   6  7 12 11    9    -53.5  17.686      1
   6  8  7 12    9    -11.3  47.225      1
   7 12  9 10    9    75.7   13.375      1
   7 12  9 10    9    -27.1  3.573      2
   7 12  9 10    9    44.5   3.029      3
   7 12  9 10    9    -51.1  1.259      4
   7 12  9 10    9    9.5    3.920      5
   7 12  9 10    9    91.9   3.735      6
   7 12 11 10    9    -60.4  13.902      1
   7 12 11 10    9    54.9   3.307      2
   7 12 11 10    9    3.8    4.019      3
   7 12 11 10    9    115.7  2.063      4
   7 12 11 10    9    65.7   4.197      5
   7 12 11 10    9    -30.2  2.156      6
   8  6  7 12    9    168.7  46.871      1
   8  7 12  9    9    25.6   23.036      1
   8  7 12 11    9    -63.0  23.790      1



[exclusions]
  1 2
  1 3
  2 3
  2 9
  2 10
  2 11
  2 12
  3 9
  3 10
  3 11
  3 12
  4 5
  4 6
  4 7
  4 8
  5 6
  5 7
  5 8
  6 7
  6 8
  6 12
  7 8
  7 9
  7 11
  7 12
  8 12
  9 10
  9 11
  9 12
  10 11
  10 12
  11 12

#ifndef POSRES_FC
#define POSRES_FC 1000.0
#endif
[ position_restraints ]
#ifdef POSRES
    1 1 POSRES_FC POSRES_FC POSRES_FC
    2 1 POSRES_FC POSRES_FC POSRES_FC
    3 1 POSRES_FC POSRES_FC POSRES_FC
    4 1 POSRES_FC POSRES_FC POSRES_FC
    5 1 POSRES_FC POSRES_FC POSRES_FC
    6 1 POSRES_FC POSRES_FC POSRES_FC
    7 1 POSRES_FC POSRES_FC POSRES_FC
    8 1 POSRES_FC POSRES_FC POSRES_FC
    9 1 POSRES_FC POSRES_FC POSRES_FC
   10 1 POSRES_FC POSRES_FC POSRES_FC
   11 1 POSRES_FC POSRES_FC POSRES_FC
   12 1 POSRES_FC POSRES_FC POSRES_FC
#endif
