; GENERATED WITH smartini for ANP
; Developed by: DY
; SMILES code : [H]OC1([H])C([H])(n2c([H])nc3c(N([H])[H])nc([H])nc32)OC([H])(C([H])([H])OP(=O)([O-])OP(=O)([O-])N([H])P(=O)([O-])[O-])C1([H])O[H]
; Mapping: []
; Ringbeads: []

[moleculetype]
; molname       nrexcl
  ANP           2


[atoms]
;id type resn res    atom  cgnr chrg  mass ; atomnames      ; smiles         ; logp_origin


[bonds]
;  i  j     funct   length   force.c.


[constraints]
;  i   j     funct   length




