; GENERATED WITH smartini for CLA
; Developed by: DY
; SMILES code : [H]C([H])=C([H])c1c(C([H])([H])[H])c2c([H])c3nc(c4c5c(c(C([H])([H])[H])c(c([H])c6nc(c([H])c1n2[H])C(C([H])([H])[H])=C6C([H])([H])C([H])([H])[H])n5[H])C(=O)C4([H])C(=O)OC([H])([H])[H])C([H])(C([H])([H])C([H])([H])C(=O)OC([H])([H])C([H])=C(C([H])([H])[H])C([H])([H])C([H])([H])C([H])([H])C([H])(C([H])([H])[H])C([H])([H])C([H])([H])C([H])([H])C([H])(C([H])([H])[H])C([H])([H])C([H])([H])C([H])([H])C([H])(C([H])([H])[H])C([H])([H])[H])C3([H])C([H])([H])[H]
; Mapping: [[35, 0, 0, 5], [8, 1, 1, 16, 64], [19, 2, 2, 24, 65], [27, 3, 3, 32, 66], [5, 4, 4, 8], [6, 10, 11, 67, 72, 73, 74, 75], [7, 9, 68, 69, 70, 71], [12, 13], [14, 44, 45, 99, 100, 101], [16, 15, 15, 19, 76], [17, 18, 20, 77, 78, 79], [21, 22, 80, 81, 82], [24, 23, 23, 27], [25, 26, 28, 83, 84, 85], [29, 30, 86, 87, 88, 89, 90], [32, 31, 31, 35, 91], [33, 34, 36, 92, 93, 94], [37, 38, 39, 95], [40, 41], [42, 43, 96, 97, 98], [46, 47, 102, 103, 104], [48, 49, 50, 105, 106, 107, 108, 109, 110], [51, 52, 111, 112, 113, 114], [53, 54, 55, 115, 116, 117, 118, 119, 120], [56, 57, 121, 122, 123, 124], [58, 59, 60, 125, 126, 127, 128, 129, 130], [61, 62, 63, 131, 132, 133, 134, 135, 136, 137]]
; Ringbeads: [[0, 1, 2, 3, 4, 5, 6, 9, 10, 12, 13, 15, 16, 17]]

[moleculetype]
; molname       nrexcl
  CLA           2


[atoms]
;id type resn res    atom  cgnr chrg  mass ; atomnames      ; smiles         ; logp_origin
1   TC5   1   CLA    C01    1    0.0  36.0   ; C1, C5         ; C=C            ;          
2   TC5   1   CLA    C02    2    0.0  36.0   ; C2, C13        ; C=C            ;          
3   TC5   1   CLA    C03    3    0.0  36.0   ; C3, C20        ; C=C            ;          
4   TC5   1   CLA    C04    4    0.0  36.0   ; C4, C27        ; C=C            ;          
5   TN6a  1   CLA    N05    5    0.0  36.0   ; N1, C8         ; CN             ;          
6   SC3   1   CLA    C06    6    0.0  54.0   ; C6, C10, C11   ; CCC            ;          
7   TC3   1   CLA    C07    7    0.0  36.0   ; C7, C9         ; CC             ;          
8   TN5a  1   CLA    N08    8    0.0  36.0   ; C12, O1        ; C=O            ;          
9   SP2a  1   CLA    P09    9    0.0  54.0   ; O2, C36, C37   ; CCO            ;          
10  TN6d  1   CLA    N10    10   0.0  36.0   ; N2, C16        ; CN             ;          
11  SC5   1   CLA    C11    11   0.0  54.0   ; C14, C15, C17  ; CC=C           ;          
12  TC4   1   CLA    C12    12   0.0  36.0   ; C18, C19       ; C=C            ;          
13  TN6a  1   CLA    N13    13   0.0  36.0   ; N3, C23        ; CN             ;          
14  SC4   1   CLA    C14    14   0.0  54.0   ; C21, C22, C24  ; CC=C           ;          
15  TC3   1   CLA    C15    15   0.0  36.0   ; C25, C26       ; CC             ;          
16  TN6d  1   CLA    N16    16   0.0  36.0   ; N4, C30        ; CN             ;          
17  SC5   1   CLA    C17    17   0.0  54.0   ; C28, C29, C31  ; CC=C           ;          
18  SN5a  1   CLA    N18    18   0.0  54.0   ; C32, O3, C33   ; CC=O           ;          
19  TN5a  1   CLA    N19    19   0.0  36.0   ; C34, O4        ; C=O            ;          
20  TP2a  1   CLA    P20    20   0.0  36.0   ; O5, C35        ; CO             ;          
21  TC3   1   CLA    C21    21   0.0  36.0   ; C38, C39       ; CC             ;          
22  SC3   1   CLA    C22    22   0.0  54.0   ; C40, C41, C42  ; CCC            ;          
23  TC3   1   CLA    C23    23   0.0  36.0   ; C43, C44       ; CC             ;          
24  SC3   1   CLA    C24    24   0.0  54.0   ; C45, C46, C47  ; CCC            ;          
25  TC3   1   CLA    C25    25   0.0  36.0   ; C48, C49       ; CC             ;          
26  SC3   1   CLA    C26    26   0.0  54.0   ; C50, C51, C52  ; CCC            ;          
27  SC3   1   CLA    C27    27   0.0  54.0   ; C53, C54, C55  ; CCC            ;          


[bonds]
;  i  j     funct   length   force.c.
   1  6        1      0.374       28928.7
   1 16        1      0.226       50000.0
   2 11        1      0.308       50000.0
   3 10        1      0.251       50000.0
   3 14        1      0.305       50000.0
   4 17        1      0.315       38823.1
   5  7        1      0.288       29159.1
   6  7        1      0.324       9575.4
   6  8        1      0.245       21721.1
   8  9        1      0.277       19464.1
   9 21        1      0.300       50000.0
  11 12        1      0.325       4566.5
  14 15        1      0.337       12493.1
  17 18        1      0.370       29092.9
  18 19        1      0.235       21595.7
  19 20        1      0.245       50000.0
  21 22        1      0.335       7120.1
  22 23        1      0.346       8713.6
  23 24        1      0.281       16357.8
  24 25        1      0.296       4910.5
  25 26        1      0.304       3653.9
  26 27        1      0.320       7711.4


[constraints]
;  i   j     funct   length
   1  5        1      0.223
   1 18        1      0.257
   2  5        1      0.241
   2 10        1      0.250
   3 13        1      0.238
   4 13        1      0.242
   4 16        1      0.238
  10 11        1      0.319
  13 14        1      0.305
  16 17        1      0.329


[angles]
;  i  j  k    funct  angle  force.c.
   1  5  2        1    167.2  900.5
   1  5  7       10    122.4  460.5
   1  6  7       10    79.9    31.1
   1  6  8       10    118.5   85.6
   1 16  4        1    161.8   27.1
   1 16 17       10    102.7  634.7
   1 18 17       10    86.8   405.6
   1 18 19       10    78.7    78.0
   2  5  7       10    69.4   568.0
   2 10  3        1    171.0  370.9
   2 11 12       10    132.5   82.7
   3 10 11       10    108.9  2000.0
   3 13  4        1    175.2  424.3
   3 14 15       10    119.7  198.5
   4 13 14       10    115.5  2000.0
   4 17 18       10    108.1  205.9
   5  1  6       10    62.6   1123.1
   5  1 16       10    98.8   1319.0
   5  1 18       10    156.2  496.5
   5  2 10       10    86.6   1644.1
   5  2 11       10    150.7  128.6
   5  7  6       10    66.0   540.4
   6  1 16       10    151.7   14.9
   6  1 18       10    97.5   253.3
   6  8  9       10    114.7   67.9
   7  6  8       10    106.1   66.9
   8  9 21        1    111.4   40.3
   9 21 22        1    90.3   255.7
  10  3 13       10    86.8   1251.6
  10  3 14       10    151.8  244.1
  10 11 12       10    86.0   105.9
  13  4 16       10    84.0   1727.7
  13  4 17       10    154.0  443.3
  13 14 15       10    75.3   601.7
  16  1 18       10    103.4  2000.0
  16 17 18       10    65.3   1834.0
  17 18 19       10    120.1    5.4
  18 19 20       10    115.5   83.0
  21 22 23        1    134.6   39.1
  22 23 24        1    99.3    93.5
  23 24 25        1    126.8   40.6
  24 25 26        1    108.7  108.1
  25 26 27        1    127.7   62.1


[dihedrals]
;  i  j  k  l  funct  parameters...
   1  5  2 10    11    124.2   0.4514  -0.5612  -0.06004   0.5903  -0.3594
   1  5  2 11    11    92.75   0.2854   0.2227  -0.7353  -0.2741   0.5032
   1  6  8  9    9    103.7  4.051      1
   1 16  4 13    11    249   0.289   0.4885   0.2596  -0.6281  -0.4647
   1 16  4 17    11    153.8   0.1907  -0.6066   0.2804   0.5941  -0.4051
   1 16 17  4    9    -170.7  7.318      1
   1 18 17  4    9    -176.9  73.223      1
   1 18 19 20    9    -26.3  1.397      1
   1 18 19 20    9    -76.7  1.987      2
   2  5  1  6    11    111.2   0.3336   0.527   0.1905  -0.6226  -0.4325
   2  5  1 16    11    73.68   0.6101  -0.439  -0.5546   0.3558   0.02868
   2  5  1 18    11    97.83   0.2213  -0.2856  -0.6042   0.4386   0.5586
   2  5  7  6    9    41.6   10.731      1
   2  5  7  6    9    -95.9  7.176      2
   2  5  7  6    9    132.2  2.759      3
   2  5  7  6    9    133.3  1.037      4
   2  5  7  6    9    16.8   2.140      5
   2  5  7  6    9    -32.0  0.465      6
   2 10  3 13    11    82.85   0.444   0.2997  -0.7189  -0.2087   0.3907
   2 10  3 14    11    39.76   0.2191   0.04274  -0.3043   0.5644   0.7342
   2 10 11 12    9    -0.2   19.749      1
   2 11 10  3    9    -4.6   63.374      1
   3 10  2  5    11    87.71   0.4707   0.3976  -0.6588  -0.3348   0.2724
   3 10  2 11    11    28.6   0.4638  -0.8528   0.1688   0.1086   0.132
   3 10 11 12    9    175.4  8.739      1
   3 10 11 12    9    171.5  7.011      2
   3 10 11 12    9    168.9  4.559      3
   3 10 11 12    9    171.4  1.912      4
   3 10 11 12    9    -46.2  0.506      5
   3 10 11 12    9    -15.4  2.143      6
   3 13  4 16    11    48.35   0.1316  -0.5552   0.4096   0.5708  -0.4254
   3 13  4 17    11    40.31   0.2857  -0.7036   0.02925   0.6463  -0.06891
   3 13 14 15    9    -1.1   5.420      1
   3 13 14 15    9    177.9  3.176      2
   3 13 14 15    9    -2.1   0.987      3
   3 13 14 15    9    -101.1  0.056      4
   3 13 14 15    9    45.0   0.081      5
   3 13 14 15    9    -0.8   1.159      6
   3 14 13  4    9    -1.4   105.669      1
   4 13  3 10    11    45.04   0.1531  -0.581   0.364   0.5975  -0.3865
   4 13  3 14    11    34.63   0.1594   0.5796   0.3413  -0.5936  -0.412
   4 13 14 15    9    174.7  10.401      1
   4 13 14 15    9    170.7  6.565      2
   4 13 14 15    9    174.7  2.652      3
   4 13 14 15    9    -131.8  1.056      4
   4 13 14 15    9    -96.6  0.868      5
   4 13 14 15    9    9.9    3.468      6
   4 16  1  5    11    99.59   0.152   0.4072   0.5307  -0.51  -0.519
   4 16  1  6    11    48.91   0.5807  -0.0963  -0.7576  -0.2804   0.03087
   4 16  1 18    11    207.3   0.224  -0.5045   0.3243   0.605  -0.4735
   4 16 17 18    9    15.9   5.942      1
   4 17 18 19    9    -102.1  29.397      1
   5  1  6  8    9    -47.0  12.114      1
   5  1 16 17    9    10.4   11.074      1
   5  1 16 17    9    -160.7  7.309      2
   5  1 16 17    9    18.1   2.477      3
   5  1 16 17    9    64.5   1.842      4
   5  1 16 17    9    -125.5  2.734      5
   5  1 16 17    9    -71.8  2.173      6
   5  1 18 17    9    -5.0   13.793      1
   5  1 18 17    9    168.9  3.555      2
   5  1 18 17    9    168.6  2.992      3
   5  1 18 17    9    -12.2  1.954      4
   5  1 18 17    9    -30.8  1.616      5
   5  1 18 17    9    -38.3  0.284      6
   5  1 18 19    9    -132.5  14.004      1
   5  1 18 19    9    -86.3  1.948      2
   5  1 18 19    9    149.1  3.355      3
   5  1 18 19    9    -138.9  0.492      4
   5  1 18 19    9    95.3   1.792      5
   5  1 18 19    9    -18.7  0.837      6
   5  2 10 11    9    -162.0  1.431      1
   5  2 11 10    9    -173.4  7.069      1
   5  2 11 10    9    0.3    0.171      2
   5  2 11 10    9    16.5   1.774      3
   5  2 11 10    9    -138.6  0.609      4
   5  2 11 10    9    -45.8  0.063      5
   5  2 11 10    9    168.4  0.139      6
   5  2 11 12    9    -167.2  13.667      1
   5  2 11 12    9    22.2   3.511      2
   5  2 11 12    9    37.4   2.121      3
   5  2 11 12    9    -125.2  3.404      4
   5  2 11 12    9    62.3   2.186      5
   5  2 11 12    9    -116.9  0.709      6
   5  7  6  8    9    35.8   23.381      1
   6  1 16 17    9    -33.4  4.254      1
   6  1 18 17    9    -167.3  2.621      1
   6  1 18 19    9    -116.6  11.913      1
   6  8  9 21    11    7.215   0.7806  -0.07547   0.05222   0.2358   0.5715
   7  5  1 16    9    -24.1  12.449      1
   7  5  1 16    9    132.1  5.611      2
   7  5  1 16    9    112.5  0.373      3
   7  5  1 16    9    -85.0  1.900      4
   7  5  1 16    9    172.5  0.711      5
   7  5  1 16    9    129.8  0.577      6
   7  5  1 18    9    151.2  14.144      1
   7  5  1 18    9    -58.1  1.134      2
   7  5  1 18    9    -88.2  3.382      3
   7  5  1 18    9    68.9   2.185      4
   7  5  1 18    9    -131.3  0.542      5
   7  5  1 18    9    -9.1   0.129      6
   7  5  2 10    9    27.5   27.211      1
   7  5  2 11    9    12.7   13.883      1
   7  5  2 11    9    -157.9  2.820      2
   7  5  2 11    9    -140.1  3.434      3
   7  5  2 11    9    40.0   0.961      4
   7  5  2 11    9    61.8   3.098      5
   7  5  2 11    9    88.6   1.710      6
   7  6  1 16    9    -64.2  0.924      1
   7  6  1 18    9    37.6   14.940      1
   7  6  8  9    9    179.7  5.184      1
   8  6  1 16    9    15.5   1.621      1
   8  6  1 18    9    137.0  5.802      1
   8  9 21 22    11    25.5   0.3365   0.1322  -0.6839   0.05125   0.6316
   9 21 22 23    11    28.45   0.2712   0.3003  -0.4993  -0.03179   0.7655
  10  2 11 12    9    171.6  5.414      1
  10  2 11 12    9    165.3  3.537      2
  10  2 11 12    9    172.1  1.223      3
  10  2 11 12    9    -69.0  0.871      4
  10  2 11 12    9    -55.5  1.118      5
  10  2 11 12    9    94.2   0.880      6
  10  3 13 14    9    -7.2   10.477      1
  10  3 14 13    9    163.8  2.907      1
  10  3 14 15    9    167.5  5.821      1
  11 10  3 13    9    -7.2   19.125      1
  11 10  3 14    9    5.3    16.615      1
  13  3 14 15    9    176.7  5.726      1
  13  3 14 15    9    173.3  3.006      2
  13  3 14 15    9    174.8  0.514      3
  13  3 14 15    9    -49.9  0.390      4
  13  3 14 15    9    -133.2  0.372      5
  13  3 14 15    9    11.1   1.122      6
  13  4 16 17    9    -8.9   7.178      1
  13  4 17 16    9    165.3  2.248      1
  13  4 17 18    9    171.9  8.772      1
  14 13  4 16    9    -5.5   16.129      1
  14 13  4 17    9    4.1    11.317      1
  16  1 18 19    9    54.2   10.257      1
  16  1 18 19    9    -74.0  7.273      2
  16  1 18 19    9    146.3  3.267      3
  16  1 18 19    9    -82.2  1.524      4
  16  1 18 19    9    107.5  2.427      5
  16  1 18 19    9    -148.3  1.968      6
  16  4 17 18    9    -144.0  3.011      1
  16 17 18 19    9    -98.8  31.792      1
  17 18 19 20    9    -110.9  1.226      1
  17 18 19 20    9    120.7  2.005      2
  21 22 23 24    11    28.6   0.07084  -0.4186   0.6909   0.3637  -0.4585
  22 23 24 25    11    46.13   0.2329  -0.3235  -0.5755   0.4464   0.5574
  23 24 25 26    11    46.9   0.2204  -0.06821  -0.6769  -0.01106   0.6989
  24 25 26 27    11    27.99   0.1449  -0.07678  -0.604   0.1224   0.7703



[exclusions]
  1 2
  1 3
  1 4
  1 5
  1 6
  1 7
  1 8
  1 10
  1 11
  1 13
  1 14
  1 16
  1 17
  1 18
  1 19
  2 3
  2 4
  2 5
  2 6
  2 7
  2 10
  2 11
  2 12
  2 13
  2 14
  2 16
  2 17
  2 18
  3 4
  3 5
  3 6
  3 7
  3 10
  3 11
  3 13
  3 14
  3 15
  3 16
  3 17
  3 18
  4 5
  4 6
  4 7
  4 10
  4 11
  4 13
  4 14
  4 16
  4 17
  4 18
  5 6
  5 7
  5 10
  5 11
  5 13
  5 14
  5 16
  5 17
  5 18
  6 7
  6 8
  6 9
  6 10
  6 11
  6 13
  6 14
  6 16
  6 17
  6 18
  7 8
  7 10
  7 11
  7 13
  7 14
  7 16
  7 17
  7 18
  8 9
  8 21
  9 21
  9 22
  10 11
  10 12
  10 13
  10 14
  10 16
  10 17
  10 18
  11 12
  11 13
  11 14
  11 16
  11 17
  11 18
  13 14
  13 15
  13 16
  13 17
  13 18
  14 15
  14 16
  14 17
  14 18
  16 17
  16 18
  17 18
  17 19
  18 19
  18 20
  19 20
  21 22
  21 23
  22 23
  22 24
  23 24
  23 25
  24 25
  24 26
  25 26
  25 27
  26 27

#ifndef POSRES_FC
#define POSRES_FC 1000.0
#endif
[ position_restraints ]
#ifdef POSRES
    1 1 POSRES_FC POSRES_FC POSRES_FC
    2 1 POSRES_FC POSRES_FC POSRES_FC
    3 1 POSRES_FC POSRES_FC POSRES_FC
    4 1 POSRES_FC POSRES_FC POSRES_FC
    5 1 POSRES_FC POSRES_FC POSRES_FC
    6 1 POSRES_FC POSRES_FC POSRES_FC
    7 1 POSRES_FC POSRES_FC POSRES_FC
    8 1 POSRES_FC POSRES_FC POSRES_FC
    9 1 POSRES_FC POSRES_FC POSRES_FC
   10 1 POSRES_FC POSRES_FC POSRES_FC
   11 1 POSRES_FC POSRES_FC POSRES_FC
   12 1 POSRES_FC POSRES_FC POSRES_FC
   13 1 POSRES_FC POSRES_FC POSRES_FC
   14 1 POSRES_FC POSRES_FC POSRES_FC
   15 1 POSRES_FC POSRES_FC POSRES_FC
   16 1 POSRES_FC POSRES_FC POSRES_FC
   17 1 POSRES_FC POSRES_FC POSRES_FC
   18 1 POSRES_FC POSRES_FC POSRES_FC
   19 1 POSRES_FC POSRES_FC POSRES_FC
   20 1 POSRES_FC POSRES_FC POSRES_FC
   21 1 POSRES_FC POSRES_FC POSRES_FC
   22 1 POSRES_FC POSRES_FC POSRES_FC
   23 1 POSRES_FC POSRES_FC POSRES_FC
   24 1 POSRES_FC POSRES_FC POSRES_FC
   25 1 POSRES_FC POSRES_FC POSRES_FC
   26 1 POSRES_FC POSRES_FC POSRES_FC
   27 1 POSRES_FC POSRES_FC POSRES_FC
#endif
