; GENERATED WITH smartini for DMBI
; Developed by: DY
; SMILES code : [H]c1c([H])c([H])c2c(c1[H])N(C([H])([H])[H])C([H])(c1c([H])c([H])c(N(C([H])([H])[H])C([H])([H])[H])c([H])c1[H])N2C([H])([H])[H]
; Mapping: [[0, 7, 21, 22, 23], [1, 8, 24, 25, 26], [2, 18, 19, 35, 36, 37, 38, 39, 40], [3, 6, 12, 20, 30], [4, 9, 27], [5, 10, 28], [11, 16, 29, 33], [13, 14, 31, 32], [15, 17, 34]]
; Ringbeads: [[0, 1, 3, 4, 5, 7], [3, 6, 8]]

[moleculetype]
; molname       nrexcl
  DMBI          2


[atoms]
;id type resn res    atom  cgnr chrg  mass ; atomnames      ; smiles         ; logp_origin
1   TN4   1   DMBI   N01    1    0.0  36.0   ; N1, C5         ; CN             ;          
2   TN4   1   DMBI   N02    2    0.0  36.0   ; N2, C6         ; CN             ;          
3   SN1   1   DMBI   N03    3    0.0  54.0   ; N3, C16, C17   ; CNC            ;          
4   SC5   1   DMBI   C04    4    0.0  54.0   ; C1, C4, C10    ; CC=C           ;          
5   TC5   1   DMBI   C05    5    0.0  36.0   ; C2, C7         ; C=C            ;          
6   TC5   1   DMBI   C06    6    0.0  36.0   ; C3, C8         ; C=C            ;          
7   TC5   1   DMBI   C07    7    0.0  36.0   ; C9, C14        ; C=C            ;          
8   TC5   1   DMBI   C08    8    0.0  36.0   ; C11, C12       ; C=C            ;          
9   TC5   1   DMBI   C09    9    0.0  36.0   ; C13, C15       ; C=C            ;          


[bonds]
;  i  j     funct   length   force.c.
   1  4        1      0.283       4157.2
   1  5        1      0.271       42679.6
   2  4        1      0.292       3026.7
   2  6        1      0.271       42339.3
   3  9        1      0.280       50000.0


[constraints]
;  i   j     funct   length
   4  7        1      0.289
   4  9        1      0.311
   5  6        1      0.307
   5  8        1      0.260
   6  8        1      0.260
   7  9        1      0.303


[angles]
;  i  j  k    funct  angle  force.c.
   1  4  2       10    119.7   92.1
   1  4  7       10    111.8    6.2
   1  4  9       10    119.8  136.8
   1  5  6       10    110.1  1275.1
   1  5  8        1    162.0  211.4
   2  4  7       10    103.6    7.5
   2  4  9       10    120.0   96.0
   2  6  5       10    110.1  1316.4
   2  6  8        1    161.8  209.1
   3  9  4       10    143.3  679.0
   3  9  7       10    87.7   1096.4
   4  1  5       10    87.2    94.6
   4  2  6       10    86.5    92.7


[dihedrals]
;  i  j  k  l  funct  parameters...
   1  4  2  6    9    127.0  13.332      1
   1  4  7  9    9    -67.7  13.647      1
   1  4  9  3    9    81.4   5.359      1
   1  4  9  7    9    81.8   6.988      1
   1  4  9  7    9    -20.9  1.000      2
   1  4  9  7    9    71.3   1.701      3
   1  4  9  7    9    -14.0  0.077      4
   1  4  9  7    9    71.0   1.000      5
   1  4  9  7    9    145.4  0.681      6
   1  5  6  2    9    178.6  23.878      1
   1  5  6  8    9    5.0    15.516      1
   1  5  8  6    11    51   0.5838  -0.6826  -0.321   0.2105   0.2145
   2  4  1  5    9    -139.1  10.831      1
   2  4  1  5    9    -96.4  7.339      2
   2  4  1  5    9    -43.0  2.734      3
   2  4  1  5    9    131.7  1.767      4
   2  4  1  5    9    -164.6  2.837      5
   2  4  1  5    9    23.9   1.691      6
   2  4  7  9    9    60.5   12.036      1
   2  4  9  3    9    -92.0  5.596      1
   2  4  9  7    9    -90.7  6.782      1
   2  4  9  7    9    -0.6   2.062      2
   2  4  9  7    9    -93.7  1.233      3
   2  4  9  7    9    -0.5   0.983      4
   2  4  9  7    9    -104.6  0.825      5
   2  4  9  7    9    172.0  0.297      6
   2  6  5  8    9    -7.9   15.295      1
   2  6  8  5    11    96.24   0.4744  -0.6752  -0.243   0.5066  -0.05794
   3  9  4  7    9    171.7  5.429      1
   3  9  4  7    9    165.2  3.534      2
   3  9  4  7    9    170.6  1.210      3
   3  9  4  7    9    -67.0  0.833      4
   3  9  4  7    9    -55.0  1.114      5
   3  9  4  7    9    91.2   0.762      6
   3  9  7  4    9    -0.5   33.038      1
   4  1  5  6    9    153.9  39.768      1
   4  1  5  8    11    73.55   0.2349  -0.5117  -0.1775   0.7784  -0.2134
   4  2  6  5    9    -157.9  40.186      1
   4  2  6  8    11    102   0.2581  -0.5091   0.1003   0.7008  -0.416
   5  1  4  7    9    -10.3  9.952      1
   5  1  4  9    9    58.8   10.586      1
   5  1  4  9    9    -62.4  6.923      2
   5  1  4  9    9    175.8  2.719      3
   5  1  4  9    9    -110.2  0.257      4
   5  1  4  9    9    117.4  1.187      5
   5  1  4  9    9    -10.1  1.059      6
   6  2  4  7    9    -7.1   13.038      1
   6  2  4  7    9    167.1  5.061      2
   6  2  4  7    9    146.4  1.403      3
   6  2  4  7    9    -37.4  2.267      4
   6  2  4  7    9    -25.3  0.605      5
   6  2  4  7    9    52.8   0.324      6
   6  2  4  9    9    -71.2  11.550      1
   6  2  4  9    9    37.7   6.425      2
   6  2  4  9    9    163.3  1.175      3
   6  2  4  9    9    39.5   2.121      4
   6  2  4  9    9    134.0  2.097      5
   6  2  4  9    9    44.8   2.370      6



[exclusions]
  1 2
  1 4
  1 5
  1 6
  1 7
  1 8
  1 9
  2 4
  2 5
  2 6
  2 7
  2 8
  2 9
  3 4
  3 7
  3 9
  4 5
  4 6
  4 7
  4 8
  4 9
  5 6
  5 8
  6 8
  7 9

#ifndef POSRES_FC
#define POSRES_FC 1000.0
#endif
[ position_restraints ]
#ifdef POSRES
    1 1 POSRES_FC POSRES_FC POSRES_FC
    2 1 POSRES_FC POSRES_FC POSRES_FC
    3 1 POSRES_FC POSRES_FC POSRES_FC
    4 1 POSRES_FC POSRES_FC POSRES_FC
    5 1 POSRES_FC POSRES_FC POSRES_FC
    6 1 POSRES_FC POSRES_FC POSRES_FC
    7 1 POSRES_FC POSRES_FC POSRES_FC
    8 1 POSRES_FC POSRES_FC POSRES_FC
    9 1 POSRES_FC POSRES_FC POSRES_FC
#endif
